mobley_7912193_GMX.gro created by acpype (v: 2023.10.27) on Thu May 21 00:02:07 2026
13669
    1MOL     C1    1   2.492   2.546   2.256
    1MOL     C2    2   2.398   2.600   2.472
    1MOL     C3    3   2.365   2.557   2.199
    1MOL     C4    4   2.271   2.611   2.415
    1MOL     C5    5   2.508   2.568   2.393
    1MOL     C6    6   2.255   2.590   2.278
    1MOL     C7    7   2.643   2.556   2.454
    1MOL     C8    8   2.840   2.634   3.033
    1MOL     C9    9   2.865   2.599   2.887
    1MOL    C10   10   2.735   2.604   2.805
    1MOL    C11   11   2.761   2.573   2.658
    1MOL     O1   12   2.743   2.528   2.391
    1MOL     O2   13   2.131   2.600   2.222
    1MOL     O3   14   2.637   2.581   2.588
    1MOL     H1   15   2.577   2.520   2.194
    1MOL     H2   16   2.410   2.618   2.579
    1MOL     H3   17   2.353   2.540   2.092
    1MOL     H4   18   2.186   2.637   2.477
    1MOL     H5   19   2.767   2.566   3.078
    1MOL     H6   20   2.932   2.628   3.091
    1MOL     H7   21   2.801   2.736   3.041
    1MOL     H8   22   2.938   2.669   2.845
    1MOL     H9   23   2.908   2.499   2.881
    1MOL    H10   24   2.662   2.533   2.845
    1MOL    H11   25   2.689   2.703   2.814
    1MOL    H12   26   2.830   2.646   2.615
    1MOL    H13   27   2.801   2.473   2.646
    1MOL    H14   28   2.066   2.623   2.289
    2SOL     OW   29   0.230   0.628   0.113
    2SOL    HW1   30   0.137   0.626   0.150
    2SOL    HW2   31   0.231   0.589   0.021
    3SOL     OW   32   0.225   0.275   0.996
    3SOL    HW1   33   0.260   0.258   1.088
    3SOL    HW2   34   0.137   0.230   0.984
    4SOL     OW   35   0.019   0.368   0.647
    4SOL    HW1   36  -0.063   0.411   0.686
    4SOL    HW2   37  -0.009   0.295   0.584
    5SOL     OW   38   0.569   1.275   1.165
    5SOL    HW1   39   0.476   1.268   1.128
    5SOL    HW2   40   0.580   1.364   1.209
    6SOL     OW   41   1.555   1.511   0.703
    6SOL    HW1   42   1.498   1.495   0.784
    6SOL    HW2   43   1.496   1.521   0.623
    7SOL     OW   44   1.135   0.703   0.717
    7SOL    HW1   45   1.192   0.781   0.692
    7SOL    HW2   46   1.075   0.729   0.793
    8SOL     OW   47   1.755   0.607   0.231
    8SOL    HW1   48   1.743   0.594   0.132
    8SOL    HW2   49   1.725   0.526   0.280
    9SOL     OW   50   0.768   1.144   1.023
    9SOL    HW1   51   0.690   1.161   1.083
    9SOL    HW2   52   0.802   1.231   0.987
   10SOL     OW   53   0.850   0.798   1.823
   10SOL    HW1   54   0.846   0.874   1.888
   10SOL    HW2   55   0.872   0.834   1.732
   11SOL     OW   56   0.685   1.012   0.665
   11SOL    HW1   57   0.754   0.996   0.735
   11SOL    HW2   58   0.612   1.069   0.703
   12SOL     OW   59   0.686   1.161   1.803
   12SOL    HW1   60   0.746   1.240   1.817
   12SOL    HW2   61   0.600   1.192   1.762
   13SOL     OW   62   0.335   1.435   1.061
   13SOL    HW1   63   0.257   1.404   1.008
   13SOL    HW2   64   0.393   1.493   1.004
   14SOL     OW   65   1.460   1.505   1.339
   14SOL    HW1   66   1.484   1.599   1.365
   14SOL    HW2   67   1.444   1.451   1.421
   15SOL     OW   68   0.438   0.392   1.499
   15SOL    HW1   69   0.520   0.336   1.508
   15SOL    HW2   70   0.357   0.334   1.503
   16SOL     OW   71   1.603   0.447   0.737
   16SOL    HW1   72   1.529   0.493   0.687
   16SOL    HW2   73   1.654   0.515   0.790
   17SOL     OW   74   0.231   1.713   0.483
   17SOL    HW1   75   0.265   1.790   0.537
   17SOL    HW2   76   0.275   1.713   0.393
   18SOL     OW   77   1.127   1.341   1.690
   18SOL    HW1   78   1.174   1.341   1.778
   18SOL    HW2   79   1.079   1.254   1.679
   19SOL     OW   80   0.230   1.434   0.538
   19SOL    HW1   81   0.204   1.530   0.538
   19SOL    HW2   82   0.159   1.380   0.583
   20SOL     OW   83   0.240   1.091   0.886
   20SOL    HW1   84   0.254   1.007   0.938
   20SOL    HW2   85   0.185   1.155   0.941
   21SOL     OW   86   0.620   1.786   1.439
   21SOL    HW1   87   0.528   1.769   1.474
   21SOL    HW2   88   0.648   1.878   1.465
   22SOL     OW   89   0.606   0.964   0.123
   22SOL    HW1   90   0.613   1.048   0.069
   22SOL    HW2   91   0.652   0.977   0.211
   23SOL     OW   92   1.594   0.114   1.480
   23SOL    HW1   93   1.576   0.181   1.408
   23SOL    HW2   94   1.591   0.160   1.569
   24SOL     OW   95   0.122   0.643   0.563
   24SOL    HW1   96   0.077   0.555   0.580
   24SOL    HW2   97   0.121   0.697   0.647
   25SOL     OW   98   1.842   1.767   0.359
   25SOL    HW1   99   1.896   1.738   0.439
   25SOL    HW2  100   1.872   1.857   0.330
   26SOL     OW  101   0.027   1.596   0.117
   26SOL    HW1  102   0.008   1.500   0.138
   26SOL    HW2  103  -0.006   1.654   0.192
   27SOL     OW  104   1.689   0.922   0.612
   27SOL    HW1  105   1.784   0.893   0.620
   27SOL    HW2  106   1.681   0.987   0.537
   28SOL     OW  107   1.641   1.108   0.432
   28SOL    HW1  108   1.727   1.110   0.380
   28SOL    HW2  109   1.655   1.155   0.520
   29SOL     OW  110   0.113   0.737   1.597
   29SOL    HW1  111   0.201   0.724   1.642
   29SOL    HW2  112   0.100   0.834   1.575
   30SOL     OW  113   0.613   1.365   0.726
   30SOL    HW1  114   0.564   1.278   0.735
   30SOL    HW2  115   0.590   1.408   0.639
   31SOL     OW  116   1.293   1.228   1.423
   31SOL    HW1  117   1.330   1.155   1.365
   31SOL    HW2  118   1.345   1.233   1.508
   32SOL     OW  119   0.809   0.004   0.502
   32SOL    HW1  120   0.849   0.095   0.493
   32SOL    HW2  121   0.709   0.012   0.508
   33SOL     OW  122   0.197   0.976   1.264
   33SOL    HW1  123   0.286   0.931   1.250
   33SOL    HW2  124   0.124   0.911   1.245
   34SOL     OW  125   1.525   0.999   0.190
   34SOL    HW1  126   1.462   0.923   0.203
   34SOL    HW2  127   1.573   1.017   0.276
   35SOL     OW  128   1.187   1.792   1.616
   35SOL    HW1  129   1.211   1.852   1.540
   35SOL    HW2  130   1.194   1.697   1.586
   36SOL     OW  131   0.317   0.251   1.801
   36SOL    HW1  132   0.388   0.322   1.807
   36SOL    HW2  133   0.229   0.290   1.829
   37SOL     OW  134   1.466   1.417   0.953
   37SOL    HW1  135   1.407   1.423   1.033
   37SOL    HW2  136   1.451   1.329   0.907
   38SOL     OW  137   1.667   1.714   0.572
   38SOL    HW1  138   1.626   1.691   0.484
   38SOL    HW2  139   1.649   1.640   0.637
   39SOL     OW  140   0.598   0.729   0.270
   39SOL    HW1  141   0.622   0.798   0.202
   39SOL    HW2  142   0.520   0.762   0.324
   40SOL     OW  143   1.281   0.345   0.944
   40SOL    HW1  144   1.195   0.295   0.931
   40SOL    HW2  145   1.343   0.291   1.000
   41SOL     OW  146   1.576   1.662   0.307
   41SOL    HW1  147   1.665   1.708   0.310
   41SOL    HW2  148   1.555   1.638   0.212
   42SOL     OW  149   0.807   0.605   1.465
   42SOL    HW1  150   0.760   0.602   1.554
   42SOL    HW2  151   0.756   0.550   1.399
   43SOL     OW  152   1.394   0.469   1.674
   43SOL    HW1  153   1.374   0.512   1.762
   43SOL    HW2  154   1.472   0.407   1.683
   44SOL     OW  155   0.973   0.890   1.572
   44SOL    HW1  156   1.019   0.806   1.543
   44SOL    HW2  157   0.917   0.924   1.497
   45SOL     OW  158   0.991   0.410   1.242
   45SOL    HW1  159   0.914   0.444   1.296
   45SOL    HW2  160   0.957   0.359   1.163
   46SOL     OW  161   1.041   0.701   0.429
   46SOL    HW1  162   1.067   0.697   0.525
   46SOL    HW2  163   0.956   0.650   0.415
   47SOL     OW  164   0.076   0.811   0.789
   47SOL    HW1  165   0.175   0.799   0.798
   47SOL    HW2  166   0.052   0.906   0.810
   48SOL     OW  167   0.130   1.821   1.571
   48SOL    HW1  168   0.120   1.806   1.670
   48SOL    HW2  169   0.044   1.857   1.535
   49SOL     OW  170   0.865   0.348   0.195
   49SOL    HW1  171   0.924   0.411   0.146
   49SOL    HW2  172   0.884   0.254   0.166
   50SOL     OW  173   1.719   0.585   1.831
   50SOL    HW1  174   1.693   0.674   1.795
   50SOL    HW2  175   1.717   0.517   1.758
   51SOL     OW  176   1.362   1.144   0.545
   51SOL    HW1  177   1.445   1.115   0.497
   51SOL    HW2  178   1.313   1.211   0.489
   52SOL     OW  179   0.550   0.196   0.885
   52SOL    HW1  180   0.545   0.191   0.985
   52SOL    HW2  181   0.552   0.292   0.856
   53SOL     OW  182   1.008   1.456   0.477
   53SOL    HW1  183   0.962   1.528   0.425
   53SOL    HW2  184   1.004   1.476   0.575
   54SOL     OW  185   0.351   1.801   0.853
   54SOL    HW1  186   0.401   1.715   0.859
   54SOL    HW2  187   0.416   1.878   0.850
   55SOL     OW  188   1.795   1.066   0.873
   55SOL    HW1  189   1.733   1.051   0.797
   55SOL    HW2  190   1.743   1.077   0.958
   56SOL     OW  191   1.227   1.550   1.506
   56SOL    HW1  192   1.233   1.473   1.570
   56SOL    HW2  193   1.175   1.524   1.426
   57SOL     OW  194   0.321   0.943   0.242
   57SOL    HW1  195   0.403   0.982   0.200
   57SOL    HW2  196   0.294   0.861   0.193
   58SOL     OW  197   1.458   0.735   0.728
   58SOL    HW1  198   1.453   0.670   0.803
   58SOL    HW2  199   1.538   0.794   0.741
   59SOL     OW  200   0.461   1.266   1.727
   59SOL    HW1  201   0.411   1.267   1.641
   59SOL    HW2  202   0.398   1.248   1.803
   60SOL     OW  203   1.111   1.776   0.237
   60SOL    HW1  204   1.051   1.714   0.287
   60SOL    HW2  205   1.142   1.732   0.152
   61SOL     OW  206   0.202   0.285   1.498
   61SOL    HW1  207   0.122   0.345   1.485
   61SOL    HW2  208   0.192   0.236   1.584
   62SOL     OW  209   1.632   1.377   0.081
   62SOL    HW1  210   1.600   1.471   0.071
   62SOL    HW2  211   1.556   1.314   0.069
   63SOL     OW  212   0.464   1.743   0.323
   63SOL    HW1  213   0.497   1.782   0.409
   63SOL    HW2  214   0.540   1.736   0.258
   64SOL     OW  215   1.400   0.107   0.426
   64SOL    HW1  216   1.376   0.070   0.336
   64SOL    HW2  217   1.499   0.123   0.430
   65SOL     OW  218   0.249   1.785   1.241
   65SOL    HW1  219   0.306   1.720   1.291
   65SOL    HW2  220   0.233   1.752   1.148
   66SOL     OW  221   0.940   1.698   0.904
   66SOL    HW1  222   1.020   1.641   0.925
   66SOL    HW2  223   0.891   1.658   0.827
   67SOL     OW  224   0.382   0.700   0.480
   67SOL    HW1  225   0.427   0.610   0.477
   67SOL    HW2  226   0.288   0.689   0.513
   68SOL     OW  227   1.547   0.222   1.729
   68SOL    HW1  228   1.542   0.259   1.821
   68SOL    HW2  229   1.475   0.153   1.717
   69SOL     OW  230   0.614   0.122   0.117
   69SOL    HW1  231   0.712   0.100   0.124
   69SOL    HW2  232   0.583   0.105   0.024
   70SOL     OW  233   0.781   0.264   1.749
   70SOL    HW1  234   0.848   0.203   1.792
   70SOL    HW2  235   0.708   0.283   1.814
   71SOL     OW  236   0.888   1.514   1.195
   71SOL    HW1  237   0.865   1.489   1.101
   71SOL    HW2  238   0.949   1.445   1.234
   72SOL     OW  239   1.351   0.590   1.433
   72SOL    HW1  240   1.379   0.547   1.518
   72SOL    HW2  241   1.376   0.686   1.434
   73SOL     OW  242   0.803   1.402   0.924
   73SOL    HW1  243   0.893   1.416   0.882
   73SOL    HW2  244   0.732   1.404   0.853
   74SOL     OW  245   0.922   0.503   0.899
   74SOL    HW1  246   0.897   0.494   0.803
   74SOL    HW2  247   0.970   0.421   0.930
   75SOL     OW  248   0.539   0.064   0.512
   75SOL    HW1  249   0.458   0.065   0.570
   75SOL    HW2  250   0.542   0.147   0.457
   76SOL     OW  251   1.434   1.188   0.041
   76SOL    HW1  252   1.466   1.112   0.098
   76SOL    HW2  253   1.342   1.215   0.071
   77SOL     OW  254   0.297   0.035   0.171
   77SOL    HW1  255   0.346   0.119   0.150
   77SOL    HW2  256   0.359  -0.030   0.216
   78SOL     OW  257   0.935   0.236   0.480
   78SOL    HW1  258   0.887   0.277   0.402
   78SOL    HW2  259   1.034   0.234   0.461
   79SOL     OW  260   1.076   0.683   1.464
   79SOL    HW1  261   0.996   0.622   1.467
   79SOL    HW2  262   1.157   0.630   1.440
   80SOL     OW  263   1.227   1.570   0.793
   80SOL    HW1  264   1.248   1.644   0.728
   80SOL    HW2  265   1.295   1.570   0.866
   81SOL     OW  266   0.459   1.152   0.741
   81SOL    HW1  267   0.388   1.125   0.806
   81SOL    HW2  268   0.433   1.124   0.648
   82SOL     OW  269   1.271   1.797   0.591
   82SOL    HW1  270   1.315   1.861   0.527
   82SOL    HW2  271   1.221   1.849   0.661
   83SOL     OW  272   1.032   0.549   0.016
   83SOL    HW1  273   0.991   0.631  -0.023
   83SOL    HW2  274   1.096   0.575   0.089
   84SOL     OW  275   0.078   0.556   1.386
   84SOL    HW1  276   0.170   0.555   1.345
   84SOL    HW2  277   0.072   0.630   1.453
   85SOL     OW  278   0.561   0.222   1.147
   85SOL    HW1  279   0.599   0.138   1.184
   85SOL    HW2  280   0.473   0.241   1.191
   86SOL     OW  281   0.866   0.454   0.642
   86SOL    HW1  282   0.834   0.526   0.580
   86SOL    HW2  283   0.890   0.373   0.589
   87SOL     OW  284   1.017   0.039   0.753
   87SOL    HW1  285   0.945   0.044   0.684
   87SOL    HW2  286   0.993  -0.030   0.822
   88SOL     OW  287   1.429   1.173   0.867
   88SOL    HW1  288   1.374   1.089   0.860
   88SOL    HW2  289   1.455   1.202   0.775
   89SOL     OW  290   1.466   0.590   0.992
   89SOL    HW1  291   1.436   0.495   0.999
   89SOL    HW2  292   1.539   0.606   1.058
   90SOL     OW  293   1.857   0.833   0.377
   90SOL    HW1  294   1.899   0.769   0.441
   90SOL    HW2  295   1.819   0.782   0.299
   91SOL     OW  296   0.488   1.385   0.174
   91SOL    HW1  297   0.401   1.370   0.221
   91SOL    HW2  298   0.471   1.411   0.079
   92SOL     OW  299   1.664   1.280   0.657
   92SOL    HW1  300   1.763   1.288   0.671
   92SOL    HW2  301   1.619   1.364   0.688
   93SOL     OW  302   1.390   0.575   0.078
   93SOL    HW1  303   1.336   0.554   0.159
   93SOL    HW2  304   1.481   0.534   0.087
   94SOL     OW  305   0.527   0.256   0.328
   94SOL    HW1  306   0.554   0.197   0.253
   94SOL    HW2  307   0.527   0.351   0.297
   95SOL     OW  308   1.754   1.223   1.588
   95SOL    HW1  309   1.845   1.184   1.575
   95SOL    HW2  310   1.762   1.319   1.612
   96SOL     OW  311   1.064   1.347   1.340
   96SOL    HW1  312   0.984   1.324   1.395
   96SOL    HW2  313   1.147   1.321   1.389
   97SOL     OW  314   1.592   1.629   1.625
   97SOL    HW1  315   1.619   1.663   1.535
   97SOL    HW2  316   1.671   1.591   1.671
   98SOL     OW  317   1.111   1.195   1.100
   98SOL    HW1  318   1.071   1.239   1.181
   98SOL    HW2  319   1.070   1.232   1.017
   99SOL     OW  320   1.638   1.099   1.079
   99SOL    HW1  321   1.643   1.180   1.138
   99SOL    HW2  322   1.552   1.101   1.028
  100SOL     OW  323   0.915   0.089   1.402
  100SOL    HW1  324   0.940   0.069   1.307
  100SOL    HW2  325   0.987   0.145   1.444
  101SOL     OW  326   0.980   1.116   1.719
  101SOL    HW1  327   0.881   1.122   1.729
  101SOL    HW2  328   1.003   1.036   1.663
  102SOL     OW  329   0.705   1.050   0.368
  102SOL    HW1  330   0.691   1.057   0.467
  102SOL    HW2  331   0.789   0.999   0.350
  103SOL     OW  332   0.410   0.813   1.251
  103SOL    HW1  333   0.496   0.825   1.301
  103SOL    HW2  334   0.368   0.726   1.278
  104SOL     OW  335   1.274   0.386   1.262
  104SOL    HW1  336   1.295   0.460   1.326
  104SOL    HW2  337   1.185   0.403   1.219
  105SOL     OW  338   0.064   1.564   1.331
  105SOL    HW1  339   0.018   1.646   1.297
  105SOL    HW2  340   0.162   1.583   1.340
  106SOL     OW  341   0.367   1.100   0.501
  106SOL    HW1  342   0.360   1.183   0.445
  106SOL    HW2  343   0.371   1.020   0.441
  107SOL     OW  344   0.566   0.537   0.865
  107SOL    HW1  345   0.578   0.603   0.791
  107SOL    HW2  346   0.612   0.571   0.948
  108SOL     OW  347   1.252   1.348   0.388
  108SOL    HW1  348   1.302   1.425   0.428
  108SOL    HW2  349   1.157   1.350   0.420
  109SOL     OW  350   1.272   1.445   1.142
  109SOL    HW1  351   1.319   1.458   1.229
  109SOL    HW2  352   1.206   1.371   1.151
  110SOL     OW  353   1.582   0.639   0.472
  110SOL    HW1  354   1.551   0.700   0.545
  110SOL    HW2  355   1.632   0.691   0.403
  111SOL     OW  356   0.354   1.510   1.329
  111SOL    HW1  357   0.333   1.466   1.242
  111SOL    HW2  358   0.451   1.536   1.332
  112SOL     OW  359   0.402   0.751   1.598
  112SOL    HW1  360   0.470   0.806   1.551
  112SOL    HW2  361   0.442   0.663   1.625
  113SOL     OW  362   1.587   0.779   1.670
  113SOL    HW1  363   1.495   0.817   1.665
  113SOL    HW2  364   1.647   0.826   1.605
  114SOL     OW  365   1.013   0.105   1.770
  114SOL    HW1  366   1.019   0.190   1.718
  114SOL    HW2  367   1.045   0.029   1.713
  115SOL     OW  368   0.504   0.050   1.740
  115SOL    HW1  369   0.462  -0.007   1.670
  115SOL    HW2  370   0.438   0.119   1.772
  116SOL     OW  371   0.573   0.870   1.029
  116SOL    HW1  372   0.617   0.959   1.020
  116SOL    HW2  373   0.510   0.870   1.106
  117SOL     OW  374   1.360   0.862   1.045
  117SOL    HW1  375   1.285   0.862   0.979
  117SOL    HW2  376   1.397   0.770   1.054
  118SOL     OW  377   1.209   0.525   0.275
  118SOL    HW1  378   1.222   0.441   0.329
  118SOL    HW2  379   1.180   0.599   0.335
  119SOL     OW  380   0.307   0.213   1.231
  119SOL    HW1  381   0.284   0.250   1.321
  119SOL    HW2  382   0.277   0.118   1.225
  120SOL     OW  383   0.037   1.310   1.282
  120SOL    HW1  384   0.090   1.261   1.350
  120SOL    HW2  385   0.059   1.408   1.287
  121SOL     OW  386   0.732   0.634   1.064
  121SOL    HW1  387   0.791   0.608   0.988
  121SOL    HW2  388   0.704   0.730   1.053
  122SOL     OW  389   1.728   0.935   1.854
  122SOL    HW1  390   1.682   0.928   1.765
  122SOL    HW2  391   1.666   0.979   1.920
  123SOL     OW  392   0.307   0.063   0.618
  123SOL    HW1  393   0.296   0.157   0.651
  123SOL    HW2  394   0.302   0.000   0.695
  124SOL     OW  395   1.622   0.367   0.374
  124SOL    HW1  396   1.624   0.291   0.438
  124SOL    HW2  397   1.574   0.444   0.414
  125SOL     OW  398   1.023   0.766   0.966
  125SOL    HW1  399   1.038   0.787   1.062
  125SOL    HW2  400   0.993   0.671   0.957
  126SOL     OW  401   0.980   1.573   1.700
  126SOL    HW1  402   0.960   1.617   1.612
  126SOL    HW2  403   1.019   1.482   1.684
  127SOL     OW  404   1.859   1.518   1.605
  127SOL    HW1  405   1.873   1.545   1.510
  127SOL    HW2  406   1.942   1.540   1.658
  128SOL     OW  407   0.350   0.898   1.804
  128SOL    HW1  408   0.426   0.942   1.852
  128SOL    HW2  409   0.385   0.851   1.722
  129SOL     OW  410   1.540   0.274   0.125
  129SOL    HW1  411   1.479   0.199   0.148
  129SOL    HW2  412   1.562   0.326   0.208
  130SOL     OW  413   1.303   0.838   0.042
  130SOL    HW1  414   1.337   0.745   0.057
  130SOL    HW2  415   1.321   0.865  -0.053
  131SOL     OW  416   1.068   1.333   0.849
  131SOL    HW1  417   1.075   1.249   0.794
  131SOL    HW2  418   1.130   1.402   0.813
  132SOL     OW  419   0.319   0.810   0.949
  132SOL    HW1  420   0.412   0.846   0.954
  132SOL    HW2  421   0.313   0.725   1.001
  133SOL     OW  422   0.339   0.509   1.006
  133SOL    HW1  423   0.287   0.426   0.989
  133SOL    HW2  424   0.416   0.514   0.942
  134SOL     OW  425   1.138   0.380   1.678
  134SOL    HW1  426   1.093   0.443   1.742
  134SOL    HW2  427   1.231   0.411   1.661
  135SOL     OW  428   1.160   0.207   1.477
  135SOL    HW1  429   1.160   0.271   1.554
  135SOL    HW2  430   1.188   0.255   1.394
  136SOL     OW  431   0.008   1.326   0.200
  136SOL    HW1  432  -0.085   1.347   0.169
  136SOL    HW2  433   0.018   1.227   0.213
  137SOL     OW  434   0.088   1.801   0.927
  137SOL    HW1  435   0.046   1.715   0.900
  137SOL    HW2  436   0.182   1.804   0.893
  138SOL     OW  437   0.504   1.568   0.910
  138SOL    HW1  438   0.570   1.642   0.919
  138SOL    HW2  439   0.548   1.489   0.868
  139SOL     OW  440   1.002   0.796   1.238
  139SOL    HW1  441   1.043   0.764   1.324
  139SOL    HW2  442   0.906   0.769   1.235
  140SOL     OW  443   0.040   0.544   1.114
  140SOL    HW1  444   0.125   0.511   1.073
  140SOL    HW2  445   0.053   0.559   1.212
  141SOL     OW  446   0.189   0.520   1.722
  141SOL    HW1  447   0.248   0.480   1.652
  141SOL    HW2  448   0.131   0.591   1.681
  142SOL     OW  449   1.369   0.950   1.660
  142SOL    HW1  450   1.408   1.039   1.680
  142SOL    HW2  451   1.379   0.930   1.563
  143SOL     OW  452   0.815   0.572   0.325
  143SOL    HW1  453   0.822   0.483   0.279
  143SOL    HW2  454   0.721   0.606   0.317
  144SOL     OW  455   1.657   0.604   1.206
  144SOL    HW1  456   1.619   0.535   1.268
  144SOL    HW2  457   1.739   0.568   1.162
  145SOL     OW  458   0.252   1.564   1.744
  145SOL    HW1  459   0.222   1.621   1.820
  145SOL    HW2  460   0.245   1.467   1.770
  146SOL     OW  461   0.671   0.464   1.269
  146SOL    HW1  462   0.637   0.375   1.239
  146SOL    HW2  463   0.697   0.518   1.189
  147SOL     OW  464   0.930   1.678   1.465
  147SOL    HW1  465   0.906   1.660   1.370
  147SOL    HW2  466   0.960   1.772   1.475
  148SOL     OW  467   0.473   0.500   0.191
  148SOL    HW1  468   0.534   0.580   0.195
  148SOL    HW2  469   0.378   0.531   0.198
  149SOL     OW  470   0.159   1.137   1.466
  149SOL    HW1  471   0.181   1.076   1.542
  149SOL    HW2  472   0.169   1.088   1.380
  150SOL     OW  473   1.347   1.059   1.234
  150SOL    HW1  474   1.371   0.996   1.160
  150SOL    HW2  475   1.257   1.099   1.216
  151SOL     OW  476   1.302   0.855   0.309
  151SOL    HW1  477   1.216   0.824   0.351
  151SOL    HW2  478   1.298   0.841   0.210
  152SOL     OW  479   1.759   1.747   1.154
  152SOL    HW1  480   1.820   1.777   1.081
  152SOL    HW2  481   1.721   1.658   1.132
  153SOL     OW  482   1.252   1.731   1.128
  153SOL    HW1  483   1.336   1.736   1.074
  153SOL    HW2  484   1.229   1.635   1.146
  154SOL     OW  485   0.083   1.258   1.022
  154SOL    HW1  486   0.078   1.257   1.122
  154SOL    HW2  487   0.000   1.217   0.984
  155SOL     OW  488   0.688   1.662   1.716
  155SOL    HW1  489   0.632   1.743   1.725
  155SOL    HW2  490   0.740   1.666   1.630
  156SOL     OW  491   0.903   0.086   0.133
  156SOL    HW1  492   0.954   0.087   0.047
  156SOL    HW2  493   0.959   0.044   0.204
  157SOL     OW  494   1.726   0.135   0.523
  157SOL    HW1  495   1.799   0.118   0.456
  157SOL    HW2  496   1.695   0.048   0.561
  158SOL     OW  497   1.388   1.573   0.477
  158SOL    HW1  498   1.455   1.585   0.403
  158SOL    HW2  499   1.348   1.662   0.500
  159SOL     OW  500   0.130   1.794   1.851
  159SOL    HW1  501   0.089   1.720   1.904
  159SOL    HW2  502   0.194   1.845   1.909
  160SOL     OW  503   1.280   0.927   0.672
  160SOL    HW1  504   1.340   0.846   0.674
  160SOL    HW2  505   1.320   0.996   0.612
  161SOL     OW  506   0.830   1.273   1.422
  161SOL    HW1  507   0.825   1.306   1.517
  161SOL    HW2  508   0.744   1.292   1.376
  162SOL     OW  509   0.672   1.616   0.154
  162SOL    HW1  510   0.681   1.626   0.055
  162SOL    HW2  511   0.632   1.527   0.175
  163SOL     OW  512   1.650   1.720   1.394
  163SOL    HW1  513   1.703   1.730   1.310
  163SOL    HW2  514   1.623   1.810   1.428
  164SOL     OW  515   1.841   0.175   0.963
  164SOL    HW1  516   1.880   0.090   0.927
  164SOL    HW2  517   1.743   0.177   0.944
  165SOL     OW  518   0.263   0.326   0.720
  165SOL    HW1  519   0.184   0.377   0.686
  165SOL    HW2  520   0.254   0.311   0.818
  166SOL     OW  521   1.194   1.612   0.031
  166SOL    HW1  522   1.200   1.519   0.068
  166SOL    HW2  523   1.135   1.612  -0.049
  167SOL     OW  524   0.822   1.002   1.372
  167SOL    HW1  525   0.862   1.001   1.280
  167SOL    HW2  526   0.832   1.094   1.412
  168SOL     OW  527   0.916   0.910   0.291
  168SOL    HW1  528   0.979   0.948   0.223
  168SOL    HW2  529   0.956   0.827   0.330
  169SOL     OW  530   1.504   1.607   0.044
  169SOL    HW1  531   1.412   1.644   0.051
  169SOL    HW2  532   1.542   1.627  -0.046
  170SOL     OW  533   0.372   1.288   1.490
  170SOL    HW1  534   0.359   1.381   1.456
  170SOL    HW2  535   0.288   1.236   1.477
  171SOL     OW  536   1.614   1.292   1.289
  171SOL    HW1  537   1.674   1.295   1.369
  171SOL    HW2  538   1.539   1.356   1.302
  172SOL     OW  539   1.039   1.098   0.696
  172SOL    HW1  540   0.969   1.051   0.750
  172SOL    HW2  541   1.098   1.030   0.653
  173SOL     OW  542   1.014   0.236   0.971
  173SOL    HW1  543   1.006   0.200   0.878
  173SOL    HW2  544   1.012   0.160   1.036
  174SOL     OW  545   0.590   1.487   0.491
  174SOL    HW1  546   0.632   1.429   0.421
  174SOL    HW2  547   0.546   1.566   0.447
  175SOL     OW  548   1.709   0.385   1.381
  175SOL    HW1  549   1.782   0.454   1.385
  175SOL    HW2  550   1.737   0.310   1.322
  176SOL     OW  551   0.255   1.348   0.290
  176SOL    HW1  552   0.159   1.349   0.263
  176SOL    HW2  553   0.267   1.401   0.374
  177SOL     OW  554   0.105   1.013   1.726
  177SOL    HW1  555   0.028   0.980   1.780
  177SOL    HW2  556   0.190   0.983   1.768
  178SOL     OW  557   0.672   0.203   1.489
  178SOL    HW1  558   0.762   0.187   1.449
  178SOL    HW2  559   0.680   0.208   1.588
  179SOL     OW  560   0.075   0.345   0.033
  179SOL    HW1  561  -0.017   0.317   0.004
  179SOL    HW2  562   0.106   0.422  -0.023
  180SOL     OW  563   1.440   0.856   1.398
  180SOL    HW1  564   1.383   0.908   1.335
  180SOL    HW2  565   1.536   0.868   1.374
  181SOL     OW  566   0.072   0.166   0.318
  181SOL    HW1  567   0.055   0.249   0.264
  181SOL    HW2  568   0.162   0.129   0.296
  182SOL     OW  569   1.183   1.335   0.119
  182SOL    HW1  570   1.084   1.324   0.121
  182SOL    HW2  571   1.217   1.350   0.212
  183SOL     OW  572   0.613   0.842   1.431
  183SOL    HW1  573   0.669   0.923   1.414
  183SOL    HW2  574   0.672   0.762   1.434
  184SOL     OW  575   1.493   1.767   0.959
  184SOL    HW1  576   1.526   1.831   0.890
  184SOL    HW2  577   1.559   1.761   1.034
  185SOL     OW  578   0.716   0.565   1.708
  185SOL    HW1  579   0.735   0.630   1.782
  185SOL    HW2  580   0.776   0.485   1.717
  186SOL     OW  581   1.450   1.220   1.633
  186SOL    HW1  582   1.441   1.210   1.732
  186SOL    HW2  583   1.546   1.213   1.607
  187SOL     OW  584   0.390   1.741   1.560
  187SOL    HW1  585   0.299   1.782   1.558
  187SOL    HW2  586   0.383   1.647   1.592
  188SOL     OW  587   1.674   0.883   1.254
  188SOL    HW1  588   1.647   0.794   1.217
  188SOL    HW2  589   1.675   0.951   1.181
  189SOL     OW  590   1.225   0.325   0.449
  189SOL    HW1  591   1.290   0.251   0.438
  189SOL    HW2  592   1.245   0.375   0.533
  190SOL     OW  593   0.594   0.745   0.652
  190SOL    HW1  594   0.644   0.830   0.633
  190SOL    HW2  595   0.506   0.747   0.604
  191SOL     OW  596   1.777   0.342   1.642
  191SOL    HW1  597   1.760   0.373   1.548
  191SOL    HW2  598   1.693   0.305   1.680
  192SOL     OW  599   1.730   0.934   1.517
  192SOL    HW1  600   1.768   1.025   1.532
  192SOL    HW2  601   1.722   0.917   1.418
  193SOL     OW  602   0.859   1.374   0.016
  193SOL    HW1  603   0.813   1.389   0.104
  193SOL    HW2  604   0.903   1.459  -0.014
  194SOL     OW  605   0.661   1.790   0.953
  194SOL    HW1  606   0.615   1.878   0.940
  194SOL    HW2  607   0.760   1.802   0.946
  195SOL     OW  608   0.859   0.956   0.861
  195SOL    HW1  609   0.913   0.887   0.909
  195SOL    HW2  610   0.827   1.025   0.927
  196SOL     OW  611   1.083   0.984   0.087
  196SOL    HW1  612   1.060   1.037   0.005
  196SOL    HW2  613   1.164   0.928   0.068
  197SOL     OW  614   1.861   1.569   0.851
  197SOL    HW1  615   1.790   1.557   0.781
  197SOL    HW2  616   1.862   1.490   0.911
  198SOL     OW  617   0.221   1.314   1.844
  198SOL    HW1  618   0.156   1.241   1.823
  198SOL    HW2  619   0.225   1.328   1.942
  199SOL     OW  620   0.079   1.240   0.653
  199SOL    HW1  621   0.078   1.193   0.741
  199SOL    HW2  622   0.161   1.212   0.602
  200SOL     OW  623   0.672   1.391   1.624
  200SOL    HW1  624   0.594   1.341   1.662
  200SOL    HW2  625   0.669   1.486   1.655
  201SOL     OW  626   1.824   0.192   1.227
  201SOL    HW1  627   1.820   0.102   1.271
  201SOL    HW2  628   1.827   0.181   1.128
  202SOL     OW  629   0.428   0.424   0.520
  202SOL    HW1  630   0.458   0.352   0.458
  202SOL    HW2  631   0.389   0.384   0.603
  203SOL     OW  632   1.705   1.487   1.104
  203SOL    HW1  633   1.612   1.462   1.077
  203SOL    HW2  634   1.731   1.437   1.186
  204SOL     OW  635   0.317   0.547   1.280
  204SOL    HW1  636   0.355   0.488   1.352
  204SOL    HW2  637   0.357   0.521   1.192
  205SOL     OW  638   0.812   1.586   0.687
  205SOL    HW1  639   0.844   1.596   0.593
  205SOL    HW2  640   0.733   1.524   0.689
  206SOL     OW  641   1.424   0.214   1.112
  206SOL    HW1  642   1.476   0.149   1.167
  206SOL    HW2  643   1.375   0.277   1.173
  207SOL     OW  644   1.001   0.034   1.154
  207SOL    HW1  645   0.938  -0.038   1.123
  207SOL    HW2  646   1.094  -0.002   1.154
  208SOL     OW  647   0.770   1.330   0.301
  208SOL    HW1  648   0.724   1.243   0.318
  208SOL    HW2  649   0.861   1.327   0.342
  209SOL     OW  650   0.618   1.567   1.284
  209SOL    HW1  651   0.613   1.649   1.341
  209SOL    HW2  652   0.707   1.564   1.239
  210SOL     OW  653   1.352   0.052   0.168
  210SOL    HW1  654   1.387   0.011   0.084
  210SOL    HW2  655   1.262   0.014   0.188
  211SOL     OW  656   1.300   0.453   0.691
  211SOL    HW1  657   1.241   0.533   0.695
  211SOL    HW2  658   1.315   0.418   0.784
  212SOL     OW  659   1.593   0.221   0.882
  212SOL    HW1  660   1.509   0.220   0.936
  212SOL    HW2  661   1.595   0.304   0.826
  213SOL     OW  662   0.039   1.077   0.300
  213SOL    HW1  663   0.138   1.066   0.291
  213SOL    HW2  664  -0.001   0.991   0.332
  214SOL     OW  665   0.875   1.646   0.337
  214SOL    HW1  666   0.798   1.611   0.283
  214SOL    HW2  667   0.843   1.717   0.399
  215SOL     OW  668   0.230   0.628   1.975
  215SOL    HW1  669   0.137   0.626   2.012
  215SOL    HW2  670   0.231   0.589   1.883
  216SOL     OW  671   0.225   0.275   2.858
  216SOL    HW1  672   0.260   0.258   2.950
  216SOL    HW2  673   0.137   0.230   2.846
  217SOL     OW  674   0.019   0.368   2.509
  217SOL    HW1  675  -0.063   0.411   2.548
  217SOL    HW2  676  -0.009   0.295   2.446
  218SOL     OW  677   0.569   1.275   3.027
  218SOL    HW1  678   0.476   1.268   2.990
  218SOL    HW2  679   0.580   1.364   3.071
  219SOL     OW  680   1.555   1.511   2.565
  219SOL    HW1  681   1.498   1.495   2.646
  219SOL    HW2  682   1.496   1.521   2.485
  220SOL     OW  683   1.135   0.703   2.579
  220SOL    HW1  684   1.192   0.781   2.554
  220SOL    HW2  685   1.075   0.729   2.655
  221SOL     OW  686   1.755   0.607   2.093
  221SOL    HW1  687   1.743   0.594   1.994
  221SOL    HW2  688   1.725   0.526   2.142
  222SOL     OW  689   0.768   1.144   2.885
  222SOL    HW1  690   0.690   1.161   2.945
  222SOL    HW2  691   0.802   1.231   2.849
  223SOL     OW  692   0.850   0.798   3.685
  223SOL    HW1  693   0.846   0.874   3.750
  223SOL    HW2  694   0.872   0.834   3.594
  224SOL     OW  695   0.685   1.012   2.527
  224SOL    HW1  696   0.754   0.996   2.597
  224SOL    HW2  697   0.612   1.069   2.565
  225SOL     OW  698   0.686   1.161   3.665
  225SOL    HW1  699   0.746   1.240   3.679
  225SOL    HW2  700   0.600   1.192   3.624
  226SOL     OW  701   0.335   1.435   2.923
  226SOL    HW1  702   0.257   1.404   2.870
  226SOL    HW2  703   0.393   1.493   2.866
  227SOL     OW  704   1.460   1.505   3.201
  227SOL    HW1  705   1.484   1.599   3.227
  227SOL    HW2  706   1.444   1.451   3.283
  228SOL     OW  707   0.438   0.392   3.361
  228SOL    HW1  708   0.520   0.336   3.370
  228SOL    HW2  709   0.357   0.334   3.365
  229SOL     OW  710   1.603   0.447   2.599
  229SOL    HW1  711   1.529   0.493   2.549
  229SOL    HW2  712   1.654   0.515   2.652
  230SOL     OW  713   0.231   1.713   2.345
  230SOL    HW1  714   0.265   1.790   2.399
  230SOL    HW2  715   0.275   1.713   2.255
  231SOL     OW  716   1.127   1.341   3.552
  231SOL    HW1  717   1.174   1.341   3.640
  231SOL    HW2  718   1.079   1.254   3.541
  232SOL     OW  719   0.230   1.434   2.400
  232SOL    HW1  720   0.204   1.530   2.400
  232SOL    HW2  721   0.159   1.380   2.445
  233SOL     OW  722   0.240   1.091   2.748
  233SOL    HW1  723   0.254   1.007   2.800
  233SOL    HW2  724   0.185   1.155   2.803
  234SOL     OW  725   0.620   1.786   3.301
  234SOL    HW1  726   0.528   1.769   3.336
  234SOL    HW2  727   0.648   1.878   3.327
  235SOL     OW  728   0.606   0.964   1.985
  235SOL    HW1  729   0.613   1.048   1.931
  235SOL    HW2  730   0.652   0.977   2.073
  236SOL     OW  731   1.594   0.114   3.342
  236SOL    HW1  732   1.576   0.181   3.270
  236SOL    HW2  733   1.591   0.160   3.431
  237SOL     OW  734   0.122   0.643   2.425
  237SOL    HW1  735   0.077   0.555   2.442
  237SOL    HW2  736   0.121   0.697   2.509
  238SOL     OW  737   1.842   1.767   2.221
  238SOL    HW1  738   1.896   1.738   2.301
  238SOL    HW2  739   1.872   1.857   2.192
  239SOL     OW  740   0.027   1.596   1.979
  239SOL    HW1  741   0.008   1.500   2.000
  239SOL    HW2  742  -0.006   1.654   2.054
  240SOL     OW  743   1.689   0.922   2.474
  240SOL    HW1  744   1.784   0.893   2.482
  240SOL    HW2  745   1.681   0.987   2.399
  241SOL     OW  746   1.641   1.108   2.294
  241SOL    HW1  747   1.727   1.110   2.242
  241SOL    HW2  748   1.655   1.155   2.382
  242SOL     OW  749   0.113   0.737   3.459
  242SOL    HW1  750   0.201   0.724   3.504
  242SOL    HW2  751   0.100   0.834   3.437
  243SOL     OW  752   0.613   1.365   2.588
  243SOL    HW1  753   0.564   1.278   2.597
  243SOL    HW2  754   0.590   1.408   2.501
  244SOL     OW  755   1.293   1.228   3.285
  244SOL    HW1  756   1.330   1.155   3.227
  244SOL    HW2  757   1.345   1.233   3.370
  245SOL     OW  758   0.809   0.004   2.364
  245SOL    HW1  759   0.849   0.095   2.355
  245SOL    HW2  760   0.709   0.012   2.370
  246SOL     OW  761   0.197   0.976   3.126
  246SOL    HW1  762   0.286   0.931   3.112
  246SOL    HW2  763   0.124   0.911   3.107
  247SOL     OW  764   1.525   0.999   2.052
  247SOL    HW1  765   1.462   0.923   2.065
  247SOL    HW2  766   1.573   1.017   2.138
  248SOL     OW  767   1.187   1.792   3.478
  248SOL    HW1  768   1.211   1.852   3.402
  248SOL    HW2  769   1.194   1.697   3.448
  249SOL     OW  770   0.317   0.251   3.663
  249SOL    HW1  771   0.388   0.322   3.669
  249SOL    HW2  772   0.229   0.290   3.691
  250SOL     OW  773   1.466   1.417   2.815
  250SOL    HW1  774   1.407   1.423   2.895
  250SOL    HW2  775   1.451   1.329   2.769
  251SOL     OW  776   1.667   1.714   2.434
  251SOL    HW1  777   1.626   1.691   2.346
  251SOL    HW2  778   1.649   1.640   2.499
  252SOL     OW  779   0.598   0.729   2.132
  252SOL    HW1  780   0.622   0.798   2.064
  252SOL    HW2  781   0.520   0.762   2.186
  253SOL     OW  782   1.281   0.345   2.806
  253SOL    HW1  783   1.195   0.295   2.793
  253SOL    HW2  784   1.343   0.291   2.862
  254SOL     OW  785   1.576   1.662   2.169
  254SOL    HW1  786   1.665   1.708   2.172
  254SOL    HW2  787   1.555   1.638   2.074
  255SOL     OW  788   0.807   0.605   3.327
  255SOL    HW1  789   0.760   0.602   3.416
  255SOL    HW2  790   0.756   0.550   3.261
  256SOL     OW  791   1.394   0.469   3.536
  256SOL    HW1  792   1.374   0.512   3.624
  256SOL    HW2  793   1.472   0.407   3.545
  257SOL     OW  794   0.973   0.890   3.434
  257SOL    HW1  795   1.019   0.806   3.405
  257SOL    HW2  796   0.917   0.924   3.359
  258SOL     OW  797   0.991   0.410   3.104
  258SOL    HW1  798   0.914   0.444   3.158
  258SOL    HW2  799   0.957   0.359   3.025
  259SOL     OW  800   1.041   0.701   2.291
  259SOL    HW1  801   1.067   0.697   2.387
  259SOL    HW2  802   0.956   0.650   2.277
  260SOL     OW  803   0.076   0.811   2.651
  260SOL    HW1  804   0.175   0.799   2.660
  260SOL    HW2  805   0.052   0.906   2.672
  261SOL     OW  806   0.130   1.821   3.433
  261SOL    HW1  807   0.120   1.806   3.532
  261SOL    HW2  808   0.044   1.857   3.397
  262SOL     OW  809   0.865   0.348   2.057
  262SOL    HW1  810   0.924   0.411   2.008
  262SOL    HW2  811   0.884   0.254   2.028
  263SOL     OW  812   1.719   0.585   3.693
  263SOL    HW1  813   1.693   0.674   3.657
  263SOL    HW2  814   1.717   0.517   3.620
  264SOL     OW  815   1.362   1.144   2.407
  264SOL    HW1  816   1.445   1.115   2.359
  264SOL    HW2  817   1.313   1.211   2.351
  265SOL     OW  818   0.550   0.196   2.747
  265SOL    HW1  819   0.545   0.191   2.847
  265SOL    HW2  820   0.552   0.292   2.718
  266SOL     OW  821   1.008   1.456   2.339
  266SOL    HW1  822   0.962   1.528   2.287
  266SOL    HW2  823   1.004   1.476   2.437
  267SOL     OW  824   0.351   1.801   2.715
  267SOL    HW1  825   0.401   1.715   2.721
  267SOL    HW2  826   0.416   1.878   2.712
  268SOL     OW  827   1.795   1.066   2.735
  268SOL    HW1  828   1.733   1.051   2.659
  268SOL    HW2  829   1.743   1.077   2.820
  269SOL     OW  830   1.227   1.550   3.368
  269SOL    HW1  831   1.233   1.473   3.432
  269SOL    HW2  832   1.175   1.524   3.288
  270SOL     OW  833   0.321   0.943   2.104
  270SOL    HW1  834   0.403   0.982   2.062
  270SOL    HW2  835   0.294   0.861   2.055
  271SOL     OW  836   1.458   0.735   2.590
  271SOL    HW1  837   1.453   0.670   2.665
  271SOL    HW2  838   1.538   0.794   2.603
  272SOL     OW  839   0.461   1.266   3.589
  272SOL    HW1  840   0.411   1.267   3.503
  272SOL    HW2  841   0.398   1.248   3.665
  273SOL     OW  842   1.111   1.776   2.099
  273SOL    HW1  843   1.051   1.714   2.149
  273SOL    HW2  844   1.142   1.732   2.014
  274SOL     OW  845   0.202   0.285   3.360
  274SOL    HW1  846   0.122   0.345   3.347
  274SOL    HW2  847   0.192   0.236   3.446
  275SOL     OW  848   1.632   1.377   1.943
  275SOL    HW1  849   1.600   1.471   1.933
  275SOL    HW2  850   1.556   1.314   1.931
  276SOL     OW  851   0.464   1.743   2.185
  276SOL    HW1  852   0.497   1.782   2.271
  276SOL    HW2  853   0.540   1.736   2.120
  277SOL     OW  854   1.400   0.107   2.288
  277SOL    HW1  855   1.376   0.070   2.198
  277SOL    HW2  856   1.499   0.123   2.292
  278SOL     OW  857   0.249   1.785   3.103
  278SOL    HW1  858   0.306   1.720   3.153
  278SOL    HW2  859   0.233   1.752   3.010
  279SOL     OW  860   0.940   1.698   2.766
  279SOL    HW1  861   1.020   1.641   2.787
  279SOL    HW2  862   0.891   1.658   2.689
  280SOL     OW  863   0.382   0.700   2.342
  280SOL    HW1  864   0.427   0.610   2.339
  280SOL    HW2  865   0.288   0.689   2.375
  281SOL     OW  866   1.547   0.222   3.591
  281SOL    HW1  867   1.542   0.259   3.683
  281SOL    HW2  868   1.475   0.153   3.579
  282SOL     OW  869   0.614   0.122   1.979
  282SOL    HW1  870   0.712   0.100   1.986
  282SOL    HW2  871   0.583   0.105   1.886
  283SOL     OW  872   0.781   0.264   3.611
  283SOL    HW1  873   0.848   0.203   3.654
  283SOL    HW2  874   0.708   0.283   3.676
  284SOL     OW  875   0.888   1.514   3.057
  284SOL    HW1  876   0.865   1.489   2.963
  284SOL    HW2  877   0.949   1.445   3.096
  285SOL     OW  878   1.351   0.590   3.295
  285SOL    HW1  879   1.379   0.547   3.380
  285SOL    HW2  880   1.376   0.686   3.296
  286SOL     OW  881   0.803   1.402   2.786
  286SOL    HW1  882   0.893   1.416   2.744
  286SOL    HW2  883   0.732   1.404   2.715
  287SOL     OW  884   0.922   0.503   2.761
  287SOL    HW1  885   0.897   0.494   2.665
  287SOL    HW2  886   0.970   0.421   2.792
  288SOL     OW  887   0.539   0.064   2.374
  288SOL    HW1  888   0.458   0.065   2.432
  288SOL    HW2  889   0.542   0.147   2.319
  289SOL     OW  890   1.434   1.188   1.903
  289SOL    HW1  891   1.466   1.112   1.960
  289SOL    HW2  892   1.342   1.215   1.933
  290SOL     OW  893   0.297   0.035   2.033
  290SOL    HW1  894   0.346   0.119   2.012
  290SOL    HW2  895   0.359  -0.030   2.078
  291SOL     OW  896   0.935   0.236   2.342
  291SOL    HW1  897   0.887   0.277   2.264
  291SOL    HW2  898   1.034   0.234   2.323
  292SOL     OW  899   1.076   0.683   3.326
  292SOL    HW1  900   0.996   0.622   3.329
  292SOL    HW2  901   1.157   0.630   3.302
  293SOL     OW  902   1.227   1.570   2.655
  293SOL    HW1  903   1.248   1.644   2.590
  293SOL    HW2  904   1.295   1.570   2.728
  294SOL     OW  905   0.459   1.152   2.603
  294SOL    HW1  906   0.388   1.125   2.668
  294SOL    HW2  907   0.433   1.124   2.510
  295SOL     OW  908   1.271   1.797   2.453
  295SOL    HW1  909   1.315   1.861   2.389
  295SOL    HW2  910   1.221   1.849   2.523
  296SOL     OW  911   1.032   0.549   1.878
  296SOL    HW1  912   0.991   0.631   1.839
  296SOL    HW2  913   1.096   0.575   1.951
  297SOL     OW  914   0.078   0.556   3.248
  297SOL    HW1  915   0.170   0.555   3.207
  297SOL    HW2  916   0.072   0.630   3.315
  298SOL     OW  917   0.561   0.222   3.009
  298SOL    HW1  918   0.599   0.138   3.046
  298SOL    HW2  919   0.473   0.241   3.053
  299SOL     OW  920   0.866   0.454   2.504
  299SOL    HW1  921   0.834   0.526   2.442
  299SOL    HW2  922   0.890   0.373   2.451
  300SOL     OW  923   1.017   0.039   2.615
  300SOL    HW1  924   0.945   0.044   2.546
  300SOL    HW2  925   0.993  -0.030   2.684
  301SOL     OW  926   1.429   1.173   2.729
  301SOL    HW1  927   1.374   1.089   2.722
  301SOL    HW2  928   1.455   1.202   2.637
  302SOL     OW  929   1.466   0.590   2.854
  302SOL    HW1  930   1.436   0.495   2.861
  302SOL    HW2  931   1.539   0.606   2.920
  303SOL     OW  932   1.857   0.833   2.239
  303SOL    HW1  933   1.899   0.769   2.303
  303SOL    HW2  934   1.819   0.782   2.161
  304SOL     OW  935   0.488   1.385   2.036
  304SOL    HW1  936   0.401   1.370   2.083
  304SOL    HW2  937   0.471   1.411   1.941
  305SOL     OW  938   1.664   1.280   2.519
  305SOL    HW1  939   1.763   1.288   2.533
  305SOL    HW2  940   1.619   1.364   2.550
  306SOL     OW  941   1.390   0.575   1.940
  306SOL    HW1  942   1.336   0.554   2.021
  306SOL    HW2  943   1.481   0.534   1.949
  307SOL     OW  944   0.527   0.256   2.190
  307SOL    HW1  945   0.554   0.197   2.115
  307SOL    HW2  946   0.527   0.351   2.159
  308SOL     OW  947   1.754   1.223   3.450
  308SOL    HW1  948   1.845   1.184   3.437
  308SOL    HW2  949   1.762   1.319   3.474
  309SOL     OW  950   1.064   1.347   3.202
  309SOL    HW1  951   0.984   1.324   3.257
  309SOL    HW2  952   1.147   1.321   3.251
  310SOL     OW  953   1.592   1.629   3.487
  310SOL    HW1  954   1.619   1.663   3.397
  310SOL    HW2  955   1.671   1.591   3.533
  311SOL     OW  956   1.111   1.195   2.962
  311SOL    HW1  957   1.071   1.239   3.043
  311SOL    HW2  958   1.070   1.232   2.879
  312SOL     OW  959   1.638   1.099   2.941
  312SOL    HW1  960   1.643   1.180   3.000
  312SOL    HW2  961   1.552   1.101   2.890
  313SOL     OW  962   0.915   0.089   3.264
  313SOL    HW1  963   0.940   0.069   3.169
  313SOL    HW2  964   0.987   0.145   3.306
  314SOL     OW  965   0.980   1.116   3.581
  314SOL    HW1  966   0.881   1.122   3.591
  314SOL    HW2  967   1.003   1.036   3.525
  315SOL     OW  968   0.705   1.050   2.230
  315SOL    HW1  969   0.691   1.057   2.329
  315SOL    HW2  970   0.789   0.999   2.212
  316SOL     OW  971   0.410   0.813   3.113
  316SOL    HW1  972   0.496   0.825   3.163
  316SOL    HW2  973   0.368   0.726   3.140
  317SOL     OW  974   1.274   0.386   3.124
  317SOL    HW1  975   1.295   0.460   3.188
  317SOL    HW2  976   1.185   0.403   3.081
  318SOL     OW  977   0.064   1.564   3.193
  318SOL    HW1  978   0.018   1.646   3.159
  318SOL    HW2  979   0.162   1.583   3.202
  319SOL     OW  980   0.367   1.100   2.363
  319SOL    HW1  981   0.360   1.183   2.307
  319SOL    HW2  982   0.371   1.020   2.303
  320SOL     OW  983   0.566   0.537   2.727
  320SOL    HW1  984   0.578   0.603   2.653
  320SOL    HW2  985   0.612   0.571   2.810
  321SOL     OW  986   1.252   1.348   2.250
  321SOL    HW1  987   1.302   1.425   2.290
  321SOL    HW2  988   1.157   1.350   2.282
  322SOL     OW  989   1.272   1.445   3.004
  322SOL    HW1  990   1.319   1.458   3.091
  322SOL    HW2  991   1.206   1.371   3.013
  323SOL     OW  992   1.582   0.639   2.334
  323SOL    HW1  993   1.551   0.700   2.407
  323SOL    HW2  994   1.632   0.691   2.265
  324SOL     OW  995   0.354   1.510   3.191
  324SOL    HW1  996   0.333   1.466   3.104
  324SOL    HW2  997   0.451   1.536   3.194
  325SOL     OW  998   0.402   0.751   3.460
  325SOL    HW1  999   0.470   0.806   3.413
  325SOL    HW2 1000   0.442   0.663   3.487
  326SOL     OW 1001   1.587   0.779   3.532
  326SOL    HW1 1002   1.495   0.817   3.527
  326SOL    HW2 1003   1.647   0.826   3.467
  327SOL     OW 1004   1.013   0.105   3.632
  327SOL    HW1 1005   1.019   0.190   3.580
  327SOL    HW2 1006   1.045   0.029   3.575
  328SOL     OW 1007   0.504   0.050   3.602
  328SOL    HW1 1008   0.462  -0.007   3.532
  328SOL    HW2 1009   0.438   0.119   3.634
  329SOL     OW 1010   0.573   0.870   2.891
  329SOL    HW1 1011   0.617   0.959   2.882
  329SOL    HW2 1012   0.510   0.870   2.968
  330SOL     OW 1013   1.360   0.862   2.907
  330SOL    HW1 1014   1.285   0.862   2.841
  330SOL    HW2 1015   1.397   0.770   2.916
  331SOL     OW 1016   1.209   0.525   2.137
  331SOL    HW1 1017   1.222   0.441   2.191
  331SOL    HW2 1018   1.180   0.599   2.197
  332SOL     OW 1019   0.307   0.213   3.093
  332SOL    HW1 1020   0.284   0.250   3.183
  332SOL    HW2 1021   0.277   0.118   3.087
  333SOL     OW 1022   0.037   1.310   3.144
  333SOL    HW1 1023   0.090   1.261   3.212
  333SOL    HW2 1024   0.059   1.408   3.149
  334SOL     OW 1025   0.732   0.634   2.926
  334SOL    HW1 1026   0.791   0.608   2.850
  334SOL    HW2 1027   0.704   0.730   2.915
  335SOL     OW 1028   1.728   0.935   3.716
  335SOL    HW1 1029   1.682   0.928   3.627
  335SOL    HW2 1030   1.666   0.979   3.782
  336SOL     OW 1031   0.307   0.063   2.480
  336SOL    HW1 1032   0.296   0.157   2.513
  336SOL    HW2 1033   0.302   0.000   2.557
  337SOL     OW 1034   1.622   0.367   2.236
  337SOL    HW1 1035   1.624   0.291   2.300
  337SOL    HW2 1036   1.574   0.444   2.276
  338SOL     OW 1037   1.023   0.766   2.828
  338SOL    HW1 1038   1.038   0.787   2.924
  338SOL    HW2 1039   0.993   0.671   2.819
  339SOL     OW 1040   0.980   1.573   3.562
  339SOL    HW1 1041   0.960   1.617   3.474
  339SOL    HW2 1042   1.019   1.482   3.546
  340SOL     OW 1043   1.859   1.518   3.467
  340SOL    HW1 1044   1.873   1.545   3.372
  340SOL    HW2 1045   1.942   1.540   3.520
  341SOL     OW 1046   0.350   0.898   3.666
  341SOL    HW1 1047   0.426   0.942   3.714
  341SOL    HW2 1048   0.385   0.851   3.584
  342SOL     OW 1049   1.540   0.274   1.987
  342SOL    HW1 1050   1.479   0.199   2.010
  342SOL    HW2 1051   1.562   0.326   2.070
  343SOL     OW 1052   1.303   0.838   1.904
  343SOL    HW1 1053   1.337   0.745   1.919
  343SOL    HW2 1054   1.321   0.865   1.809
  344SOL     OW 1055   1.068   1.333   2.711
  344SOL    HW1 1056   1.075   1.249   2.656
  344SOL    HW2 1057   1.130   1.402   2.675
  345SOL     OW 1058   0.319   0.810   2.811
  345SOL    HW1 1059   0.412   0.846   2.816
  345SOL    HW2 1060   0.313   0.725   2.863
  346SOL     OW 1061   0.339   0.509   2.868
  346SOL    HW1 1062   0.287   0.426   2.851
  346SOL    HW2 1063   0.416   0.514   2.804
  347SOL     OW 1064   1.138   0.380   3.540
  347SOL    HW1 1065   1.093   0.443   3.604
  347SOL    HW2 1066   1.231   0.411   3.523
  348SOL     OW 1067   1.160   0.207   3.339
  348SOL    HW1 1068   1.160   0.271   3.416
  348SOL    HW2 1069   1.188   0.255   3.256
  349SOL     OW 1070   0.008   1.326   2.062
  349SOL    HW1 1071  -0.085   1.347   2.031
  349SOL    HW2 1072   0.018   1.227   2.075
  350SOL     OW 1073   0.088   1.801   2.789
  350SOL    HW1 1074   0.046   1.715   2.762
  350SOL    HW2 1075   0.182   1.804   2.755
  351SOL     OW 1076   0.504   1.568   2.772
  351SOL    HW1 1077   0.570   1.642   2.781
  351SOL    HW2 1078   0.548   1.489   2.730
  352SOL     OW 1079   1.002   0.796   3.100
  352SOL    HW1 1080   1.043   0.764   3.186
  352SOL    HW2 1081   0.906   0.769   3.097
  353SOL     OW 1082   0.040   0.544   2.976
  353SOL    HW1 1083   0.125   0.511   2.935
  353SOL    HW2 1084   0.053   0.559   3.074
  354SOL     OW 1085   0.189   0.520   3.584
  354SOL    HW1 1086   0.248   0.480   3.514
  354SOL    HW2 1087   0.131   0.591   3.543
  355SOL     OW 1088   1.369   0.950   3.522
  355SOL    HW1 1089   1.408   1.039   3.542
  355SOL    HW2 1090   1.379   0.930   3.425
  356SOL     OW 1091   0.815   0.572   2.187
  356SOL    HW1 1092   0.822   0.483   2.141
  356SOL    HW2 1093   0.721   0.606   2.179
  357SOL     OW 1094   1.657   0.604   3.068
  357SOL    HW1 1095   1.619   0.535   3.130
  357SOL    HW2 1096   1.739   0.568   3.024
  358SOL     OW 1097   0.252   1.564   3.606
  358SOL    HW1 1098   0.222   1.621   3.682
  358SOL    HW2 1099   0.245   1.467   3.632
  359SOL     OW 1100   0.671   0.464   3.131
  359SOL    HW1 1101   0.637   0.375   3.101
  359SOL    HW2 1102   0.697   0.518   3.051
  360SOL     OW 1103   0.930   1.678   3.327
  360SOL    HW1 1104   0.906   1.660   3.232
  360SOL    HW2 1105   0.960   1.772   3.337
  361SOL     OW 1106   0.473   0.500   2.053
  361SOL    HW1 1107   0.534   0.580   2.057
  361SOL    HW2 1108   0.378   0.531   2.060
  362SOL     OW 1109   0.159   1.137   3.328
  362SOL    HW1 1110   0.181   1.076   3.404
  362SOL    HW2 1111   0.169   1.088   3.242
  363SOL     OW 1112   1.347   1.059   3.096
  363SOL    HW1 1113   1.371   0.996   3.022
  363SOL    HW2 1114   1.257   1.099   3.078
  364SOL     OW 1115   1.302   0.855   2.171
  364SOL    HW1 1116   1.216   0.824   2.213
  364SOL    HW2 1117   1.298   0.841   2.072
  365SOL     OW 1118   1.759   1.747   3.016
  365SOL    HW1 1119   1.820   1.777   2.943
  365SOL    HW2 1120   1.721   1.658   2.994
  366SOL     OW 1121   1.252   1.731   2.990
  366SOL    HW1 1122   1.336   1.736   2.936
  366SOL    HW2 1123   1.229   1.635   3.008
  367SOL     OW 1124   0.083   1.258   2.884
  367SOL    HW1 1125   0.078   1.257   2.984
  367SOL    HW2 1126   0.000   1.217   2.846
  368SOL     OW 1127   0.688   1.662   3.578
  368SOL    HW1 1128   0.632   1.743   3.587
  368SOL    HW2 1129   0.740   1.666   3.492
  369SOL     OW 1130   1.726   0.135   2.385
  369SOL    HW1 1131   1.799   0.118   2.318
  369SOL    HW2 1132   1.695   0.048   2.423
  370SOL     OW 1133   1.388   1.573   2.339
  370SOL    HW1 1134   1.455   1.585   2.265
  370SOL    HW2 1135   1.348   1.662   2.362
  371SOL     OW 1136   0.130   1.794   3.713
  371SOL    HW1 1137   0.089   1.720   3.766
  371SOL    HW2 1138   0.194   1.845   3.771
  372SOL     OW 1139   1.280   0.927   2.534
  372SOL    HW1 1140   1.340   0.846   2.536
  372SOL    HW2 1141   1.320   0.996   2.474
  373SOL     OW 1142   0.830   1.273   3.284
  373SOL    HW1 1143   0.825   1.306   3.379
  373SOL    HW2 1144   0.744   1.292   3.238
  374SOL     OW 1145   0.672   1.616   2.016
  374SOL    HW1 1146   0.681   1.626   1.917
  374SOL    HW2 1147   0.632   1.527   2.037
  375SOL     OW 1148   1.650   1.720   3.256
  375SOL    HW1 1149   1.703   1.730   3.172
  375SOL    HW2 1150   1.623   1.810   3.290
  376SOL     OW 1151   1.841   0.175   2.825
  376SOL    HW1 1152   1.880   0.090   2.789
  376SOL    HW2 1153   1.743   0.177   2.806
  377SOL     OW 1154   0.263   0.326   2.582
  377SOL    HW1 1155   0.184   0.377   2.548
  377SOL    HW2 1156   0.254   0.311   2.680
  378SOL     OW 1157   1.194   1.612   1.893
  378SOL    HW1 1158   1.200   1.519   1.930
  378SOL    HW2 1159   1.135   1.612   1.813
  379SOL     OW 1160   0.822   1.002   3.234
  379SOL    HW1 1161   0.862   1.001   3.142
  379SOL    HW2 1162   0.832   1.094   3.274
  380SOL     OW 1163   0.916   0.910   2.153
  380SOL    HW1 1164   0.979   0.948   2.085
  380SOL    HW2 1165   0.956   0.827   2.192
  381SOL     OW 1166   1.504   1.607   1.906
  381SOL    HW1 1167   1.412   1.644   1.913
  381SOL    HW2 1168   1.542   1.627   1.816
  382SOL     OW 1169   0.372   1.288   3.352
  382SOL    HW1 1170   0.359   1.381   3.318
  382SOL    HW2 1171   0.288   1.236   3.339
  383SOL     OW 1172   1.614   1.292   3.151
  383SOL    HW1 1173   1.674   1.295   3.231
  383SOL    HW2 1174   1.539   1.356   3.164
  384SOL     OW 1175   1.039   1.098   2.558
  384SOL    HW1 1176   0.969   1.051   2.612
  384SOL    HW2 1177   1.098   1.030   2.515
  385SOL     OW 1178   1.014   0.236   2.833
  385SOL    HW1 1179   1.006   0.200   2.740
  385SOL    HW2 1180   1.012   0.160   2.898
  386SOL     OW 1181   0.590   1.487   2.353
  386SOL    HW1 1182   0.632   1.429   2.283
  386SOL    HW2 1183   0.546   1.566   2.309
  387SOL     OW 1184   1.709   0.385   3.243
  387SOL    HW1 1185   1.782   0.454   3.247
  387SOL    HW2 1186   1.737   0.310   3.184
  388SOL     OW 1187   0.255   1.348   2.152
  388SOL    HW1 1188   0.159   1.349   2.125
  388SOL    HW2 1189   0.267   1.401   2.236
  389SOL     OW 1190   0.105   1.013   3.588
  389SOL    HW1 1191   0.028   0.980   3.642
  389SOL    HW2 1192   0.190   0.983   3.630
  390SOL     OW 1193   0.672   0.203   3.351
  390SOL    HW1 1194   0.762   0.187   3.311
  390SOL    HW2 1195   0.680   0.208   3.450
  391SOL     OW 1196   0.075   0.345   1.895
  391SOL    HW1 1197  -0.017   0.317   1.866
  391SOL    HW2 1198   0.106   0.422   1.839
  392SOL     OW 1199   1.440   0.856   3.260
  392SOL    HW1 1200   1.383   0.908   3.197
  392SOL    HW2 1201   1.536   0.868   3.236
  393SOL     OW 1202   0.072   0.166   2.180
  393SOL    HW1 1203   0.055   0.249   2.126
  393SOL    HW2 1204   0.162   0.129   2.158
  394SOL     OW 1205   1.183   1.335   1.981
  394SOL    HW1 1206   1.084   1.324   1.983
  394SOL    HW2 1207   1.217   1.350   2.074
  395SOL     OW 1208   0.613   0.842   3.293
  395SOL    HW1 1209   0.669   0.923   3.276
  395SOL    HW2 1210   0.672   0.762   3.296
  396SOL     OW 1211   1.493   1.767   2.821
  396SOL    HW1 1212   1.526   1.831   2.752
  396SOL    HW2 1213   1.559   1.761   2.896
  397SOL     OW 1214   0.716   0.565   3.570
  397SOL    HW1 1215   0.735   0.630   3.644
  397SOL    HW2 1216   0.776   0.485   3.579
  398SOL     OW 1217   1.450   1.220   3.495
  398SOL    HW1 1218   1.441   1.210   3.594
  398SOL    HW2 1219   1.546   1.213   3.469
  399SOL     OW 1220   0.390   1.741   3.422
  399SOL    HW1 1221   0.299   1.782   3.420
  399SOL    HW2 1222   0.383   1.647   3.454
  400SOL     OW 1223   1.674   0.883   3.116
  400SOL    HW1 1224   1.647   0.794   3.079
  400SOL    HW2 1225   1.675   0.951   3.043
  401SOL     OW 1226   1.225   0.325   2.311
  401SOL    HW1 1227   1.290   0.251   2.300
  401SOL    HW2 1228   1.245   0.375   2.395
  402SOL     OW 1229   0.594   0.745   2.514
  402SOL    HW1 1230   0.644   0.830   2.495
  402SOL    HW2 1231   0.506   0.747   2.466
  403SOL     OW 1232   1.777   0.342   3.504
  403SOL    HW1 1233   1.760   0.373   3.410
  403SOL    HW2 1234   1.693   0.305   3.542
  404SOL     OW 1235   1.730   0.934   3.379
  404SOL    HW1 1236   1.768   1.025   3.394
  404SOL    HW2 1237   1.722   0.917   3.280
  405SOL     OW 1238   0.859   1.374   1.878
  405SOL    HW1 1239   0.813   1.389   1.966
  405SOL    HW2 1240   0.903   1.459   1.848
  406SOL     OW 1241   0.661   1.790   2.815
  406SOL    HW1 1242   0.615   1.878   2.802
  406SOL    HW2 1243   0.760   1.802   2.808
  407SOL     OW 1244   0.859   0.956   2.723
  407SOL    HW1 1245   0.913   0.887   2.771
  407SOL    HW2 1246   0.827   1.025   2.789
  408SOL     OW 1247   1.083   0.984   1.949
  408SOL    HW1 1248   1.060   1.037   1.867
  408SOL    HW2 1249   1.164   0.928   1.930
  409SOL     OW 1250   1.861   1.569   2.713
  409SOL    HW1 1251   1.790   1.557   2.643
  409SOL    HW2 1252   1.862   1.490   2.773
  410SOL     OW 1253   0.221   1.314   3.706
  410SOL    HW1 1254   0.156   1.241   3.685
  410SOL    HW2 1255   0.225   1.328   3.804
  411SOL     OW 1256   0.079   1.240   2.515
  411SOL    HW1 1257   0.078   1.193   2.603
  411SOL    HW2 1258   0.161   1.212   2.464
  412SOL     OW 1259   0.672   1.391   3.486
  412SOL    HW1 1260   0.594   1.341   3.524
  412SOL    HW2 1261   0.669   1.486   3.517
  413SOL     OW 1262   1.824   0.192   3.089
  413SOL    HW1 1263   1.820   0.102   3.133
  413SOL    HW2 1264   1.827   0.181   2.990
  414SOL     OW 1265   0.428   0.424   2.382
  414SOL    HW1 1266   0.458   0.352   2.320
  414SOL    HW2 1267   0.389   0.384   2.465
  415SOL     OW 1268   1.705   1.487   2.966
  415SOL    HW1 1269   1.612   1.462   2.939
  415SOL    HW2 1270   1.731   1.437   3.048
  416SOL     OW 1271   0.317   0.547   3.142
  416SOL    HW1 1272   0.355   0.488   3.214
  416SOL    HW2 1273   0.357   0.521   3.054
  417SOL     OW 1274   0.812   1.586   2.549
  417SOL    HW1 1275   0.844   1.596   2.455
  417SOL    HW2 1276   0.733   1.524   2.551
  418SOL     OW 1277   1.424   0.214   2.974
  418SOL    HW1 1278   1.476   0.149   3.029
  418SOL    HW2 1279   1.375   0.277   3.035
  419SOL     OW 1280   1.001   0.034   3.016
  419SOL    HW1 1281   0.938  -0.038   2.985
  419SOL    HW2 1282   1.094  -0.002   3.016
  420SOL     OW 1283   0.770   1.330   2.163
  420SOL    HW1 1284   0.724   1.243   2.180
  420SOL    HW2 1285   0.861   1.327   2.204
  421SOL     OW 1286   0.618   1.567   3.146
  421SOL    HW1 1287   0.613   1.649   3.203
  421SOL    HW2 1288   0.707   1.564   3.101
  422SOL     OW 1289   1.352   0.052   2.030
  422SOL    HW1 1290   1.387   0.011   1.946
  422SOL    HW2 1291   1.262   0.014   2.050
  423SOL     OW 1292   1.300   0.453   2.553
  423SOL    HW1 1293   1.241   0.533   2.557
  423SOL    HW2 1294   1.315   0.418   2.646
  424SOL     OW 1295   1.593   0.221   2.744
  424SOL    HW1 1296   1.509   0.220   2.798
  424SOL    HW2 1297   1.595   0.304   2.688
  425SOL     OW 1298   0.039   1.077   2.162
  425SOL    HW1 1299   0.138   1.066   2.153
  425SOL    HW2 1300  -0.001   0.991   2.194
  426SOL     OW 1301   0.875   1.646   2.199
  426SOL    HW1 1302   0.798   1.611   2.145
  426SOL    HW2 1303   0.843   1.717   2.261
  427SOL     OW 1304   0.230   0.628   3.837
  427SOL    HW1 1305   0.137   0.626   3.874
  427SOL    HW2 1306   0.231   0.589   3.745
  428SOL     OW 1307   0.225   0.275   4.720
  428SOL    HW1 1308   0.260   0.258   4.812
  428SOL    HW2 1309   0.137   0.230   4.708
  429SOL     OW 1310   0.019   0.368   4.371
  429SOL    HW1 1311  -0.063   0.411   4.410
  429SOL    HW2 1312  -0.009   0.295   4.308
  430SOL     OW 1313   0.569   1.275   4.889
  430SOL    HW1 1314   0.476   1.268   4.852
  430SOL    HW2 1315   0.580   1.364   4.933
  431SOL     OW 1316   1.555   1.511   4.427
  431SOL    HW1 1317   1.498   1.495   4.508
  431SOL    HW2 1318   1.496   1.521   4.347
  432SOL     OW 1319   1.135   0.703   4.441
  432SOL    HW1 1320   1.192   0.781   4.416
  432SOL    HW2 1321   1.075   0.729   4.517
  433SOL     OW 1322   1.755   0.607   3.955
  433SOL    HW1 1323   1.743   0.594   3.856
  433SOL    HW2 1324   1.725   0.526   4.004
  434SOL     OW 1325   0.768   1.144   4.747
  434SOL    HW1 1326   0.690   1.161   4.807
  434SOL    HW2 1327   0.802   1.231   4.711
  435SOL     OW 1328   0.685   1.012   4.389
  435SOL    HW1 1329   0.754   0.996   4.459
  435SOL    HW2 1330   0.612   1.069   4.427
  436SOL     OW 1331   0.335   1.435   4.785
  436SOL    HW1 1332   0.257   1.404   4.732
  436SOL    HW2 1333   0.393   1.493   4.728
  437SOL     OW 1334   0.438   0.392   5.223
  437SOL    HW1 1335   0.520   0.336   5.232
  437SOL    HW2 1336   0.357   0.334   5.227
  438SOL     OW 1337   1.603   0.447   4.461
  438SOL    HW1 1338   1.529   0.493   4.411
  438SOL    HW2 1339   1.654   0.515   4.514
  439SOL     OW 1340   0.231   1.713   4.207
  439SOL    HW1 1341   0.265   1.790   4.261
  439SOL    HW2 1342   0.275   1.713   4.117
  440SOL     OW 1343   0.230   1.434   4.262
  440SOL    HW1 1344   0.204   1.530   4.262
  440SOL    HW2 1345   0.159   1.380   4.307
  441SOL     OW 1346   0.240   1.091   4.610
  441SOL    HW1 1347   0.254   1.007   4.662
  441SOL    HW2 1348   0.185   1.155   4.665
  442SOL     OW 1349   0.620   1.786   5.163
  442SOL    HW1 1350   0.528   1.769   5.198
  442SOL    HW2 1351   0.648   1.878   5.189
  443SOL     OW 1352   0.606   0.964   3.847
  443SOL    HW1 1353   0.613   1.048   3.793
  443SOL    HW2 1354   0.652   0.977   3.935
  444SOL     OW 1355   0.122   0.643   4.287
  444SOL    HW1 1356   0.077   0.555   4.304
  444SOL    HW2 1357   0.121   0.697   4.371
  445SOL     OW 1358   1.842   1.767   4.083
  445SOL    HW1 1359   1.896   1.738   4.163
  445SOL    HW2 1360   1.872   1.857   4.054
  446SOL     OW 1361   0.027   1.596   3.841
  446SOL    HW1 1362   0.008   1.500   3.862
  446SOL    HW2 1363  -0.006   1.654   3.916
  447SOL     OW 1364   1.689   0.922   4.336
  447SOL    HW1 1365   1.784   0.893   4.344
  447SOL    HW2 1366   1.681   0.987   4.261
  448SOL     OW 1367   1.641   1.108   4.156
  448SOL    HW1 1368   1.727   1.110   4.104
  448SOL    HW2 1369   1.655   1.155   4.244
  449SOL     OW 1370   0.613   1.365   4.450
  449SOL    HW1 1371   0.564   1.278   4.459
  449SOL    HW2 1372   0.590   1.408   4.363
  450SOL     OW 1373   0.809   0.004   4.226
  450SOL    HW1 1374   0.849   0.095   4.217
  450SOL    HW2 1375   0.709   0.012   4.232
  451SOL     OW 1376   0.197   0.976   4.988
  451SOL    HW1 1377   0.286   0.931   4.974
  451SOL    HW2 1378   0.124   0.911   4.969
  452SOL     OW 1379   1.525   0.999   3.914
  452SOL    HW1 1380   1.462   0.923   3.927
  452SOL    HW2 1381   1.573   1.017   4.000
  453SOL     OW 1382   1.466   1.417   4.677
  453SOL    HW1 1383   1.407   1.423   4.757
  453SOL    HW2 1384   1.451   1.329   4.631
  454SOL     OW 1385   1.667   1.714   4.296
  454SOL    HW1 1386   1.626   1.691   4.208
  454SOL    HW2 1387   1.649   1.640   4.361
  455SOL     OW 1388   0.598   0.729   3.994
  455SOL    HW1 1389   0.622   0.798   3.926
  455SOL    HW2 1390   0.520   0.762   4.048
  456SOL     OW 1391   1.281   0.345   4.668
  456SOL    HW1 1392   1.195   0.295   4.655
  456SOL    HW2 1393   1.343   0.291   4.724
  457SOL     OW 1394   1.576   1.662   4.031
  457SOL    HW1 1395   1.665   1.708   4.034
  457SOL    HW2 1396   1.555   1.638   3.936
  458SOL     OW 1397   0.807   0.605   5.189
  458SOL    HW1 1398   0.760   0.602   5.278
  458SOL    HW2 1399   0.756   0.550   5.123
  459SOL     OW 1400   0.991   0.410   4.966
  459SOL    HW1 1401   0.914   0.444   5.020
  459SOL    HW2 1402   0.957   0.359   4.887
  460SOL     OW 1403   1.041   0.701   4.153
  460SOL    HW1 1404   1.067   0.697   4.249
  460SOL    HW2 1405   0.956   0.650   4.139
  461SOL     OW 1406   0.076   0.811   4.513
  461SOL    HW1 1407   0.175   0.799   4.522
  461SOL    HW2 1408   0.052   0.906   4.534
  462SOL     OW 1409   0.130   1.821   5.295
  462SOL    HW1 1410   0.120   1.806   5.394
  462SOL    HW2 1411   0.044   1.857   5.259
  463SOL     OW 1412   0.865   0.348   3.919
  463SOL    HW1 1413   0.924   0.411   3.870
  463SOL    HW2 1414   0.884   0.254   3.890
  464SOL     OW 1415   1.362   1.144   4.269
  464SOL    HW1 1416   1.445   1.115   4.221
  464SOL    HW2 1417   1.313   1.211   4.213
  465SOL     OW 1418   0.550   0.196   4.609
  465SOL    HW1 1419   0.545   0.191   4.709
  465SOL    HW2 1420   0.552   0.292   4.580
  466SOL     OW 1421   1.008   1.456   4.201
  466SOL    HW1 1422   0.962   1.528   4.149
  466SOL    HW2 1423   1.004   1.476   4.299
  467SOL     OW 1424   0.351   1.801   4.577
  467SOL    HW1 1425   0.401   1.715   4.583
  467SOL    HW2 1426   0.416   1.878   4.574
  468SOL     OW 1427   1.795   1.066   4.597
  468SOL    HW1 1428   1.733   1.051   4.521
  468SOL    HW2 1429   1.743   1.077   4.682
  469SOL     OW 1430   0.321   0.943   3.966
  469SOL    HW1 1431   0.403   0.982   3.924
  469SOL    HW2 1432   0.294   0.861   3.917
  470SOL     OW 1433   1.458   0.735   4.452
  470SOL    HW1 1434   1.453   0.670   4.527
  470SOL    HW2 1435   1.538   0.794   4.465
  471SOL     OW 1436   1.111   1.776   3.961
  471SOL    HW1 1437   1.051   1.714   4.011
  471SOL    HW2 1438   1.142   1.732   3.876
  472SOL     OW 1439   1.632   1.377   3.805
  472SOL    HW1 1440   1.600   1.471   3.795
  472SOL    HW2 1441   1.556   1.314   3.793
  473SOL     OW 1442   0.464   1.743   4.047
  473SOL    HW1 1443   0.497   1.782   4.133
  473SOL    HW2 1444   0.540   1.736   3.982
  474SOL     OW 1445   1.400   0.107   4.150
  474SOL    HW1 1446   1.376   0.070   4.060
  474SOL    HW2 1447   1.499   0.123   4.154
  475SOL     OW 1448   0.249   1.785   4.965
  475SOL    HW1 1449   0.306   1.720   5.015
  475SOL    HW2 1450   0.233   1.752   4.872
  476SOL     OW 1451   0.940   1.698   4.628
  476SOL    HW1 1452   1.020   1.641   4.649
  476SOL    HW2 1453   0.891   1.658   4.551
  477SOL     OW 1454   0.382   0.700   4.204
  477SOL    HW1 1455   0.427   0.610   4.201
  477SOL    HW2 1456   0.288   0.689   4.237
  478SOL     OW 1457   0.614   0.122   3.841
  478SOL    HW1 1458   0.712   0.100   3.848
  478SOL    HW2 1459   0.583   0.105   3.748
  479SOL     OW 1460   0.888   1.514   4.919
  479SOL    HW1 1461   0.865   1.489   4.825
  479SOL    HW2 1462   0.949   1.445   4.958
  480SOL     OW 1463   0.803   1.402   4.648
  480SOL    HW1 1464   0.893   1.416   4.606
  480SOL    HW2 1465   0.732   1.404   4.577
  481SOL     OW 1466   0.922   0.503   4.623
  481SOL    HW1 1467   0.897   0.494   4.527
  481SOL    HW2 1468   0.970   0.421   4.654
  482SOL     OW 1469   0.539   0.064   4.236
  482SOL    HW1 1470   0.458   0.065   4.294
  482SOL    HW2 1471   0.542   0.147   4.181
  483SOL     OW 1472   1.434   1.188   3.765
  483SOL    HW1 1473   1.466   1.112   3.822
  483SOL    HW2 1474   1.342   1.215   3.795
  484SOL     OW 1475   0.297   0.035   3.895
  484SOL    HW1 1476   0.346   0.119   3.874
  484SOL    HW2 1477   0.359  -0.030   3.940
  485SOL     OW 1478   0.935   0.236   4.204
  485SOL    HW1 1479   0.887   0.277   4.126
  485SOL    HW2 1480   1.034   0.234   4.185
  486SOL     OW 1481   1.227   1.570   4.517
  486SOL    HW1 1482   1.248   1.644   4.452
  486SOL    HW2 1483   1.295   1.570   4.590
  487SOL     OW 1484   0.459   1.152   4.465
  487SOL    HW1 1485   0.388   1.125   4.530
  487SOL    HW2 1486   0.433   1.124   4.372
  488SOL     OW 1487   1.271   1.797   4.315
  488SOL    HW1 1488   1.315   1.861   4.251
  488SOL    HW2 1489   1.221   1.849   4.385
  489SOL     OW 1490   1.032   0.549   3.740
  489SOL    HW1 1491   0.991   0.631   3.701
  489SOL    HW2 1492   1.096   0.575   3.813
  490SOL     OW 1493   0.561   0.222   4.871
  490SOL    HW1 1494   0.599   0.138   4.908
  490SOL    HW2 1495   0.473   0.241   4.915
  491SOL     OW 1496   0.866   0.454   4.366
  491SOL    HW1 1497   0.834   0.526   4.304
  491SOL    HW2 1498   0.890   0.373   4.313
  492SOL     OW 1499   1.017   0.039   4.477
  492SOL    HW1 1500   0.945   0.044   4.408
  492SOL    HW2 1501   0.993  -0.030   4.546
  493SOL     OW 1502   1.429   1.173   4.591
  493SOL    HW1 1503   1.374   1.089   4.584
  493SOL    HW2 1504   1.455   1.202   4.499
  494SOL     OW 1505   1.466   0.590   4.716
  494SOL    HW1 1506   1.436   0.495   4.723
  494SOL    HW2 1507   1.539   0.606   4.782
  495SOL     OW 1508   1.857   0.833   4.101
  495SOL    HW1 1509   1.899   0.769   4.165
  495SOL    HW2 1510   1.819   0.782   4.023
  496SOL     OW 1511   0.488   1.385   3.898
  496SOL    HW1 1512   0.401   1.370   3.945
  496SOL    HW2 1513   0.471   1.411   3.803
  497SOL     OW 1514   1.664   1.280   4.381
  497SOL    HW1 1515   1.763   1.288   4.395
  497SOL    HW2 1516   1.619   1.364   4.412
  498SOL     OW 1517   1.390   0.575   3.802
  498SOL    HW1 1518   1.336   0.554   3.883
  498SOL    HW2 1519   1.481   0.534   3.811
  499SOL     OW 1520   0.527   0.256   4.052
  499SOL    HW1 1521   0.554   0.197   3.977
  499SOL    HW2 1522   0.527   0.351   4.021
  500SOL     OW 1523   1.754   1.223   5.312
  500SOL    HW1 1524   1.845   1.184   5.299
  500SOL    HW2 1525   1.762   1.319   5.336
  501SOL     OW 1526   1.064   1.347   5.064
  501SOL    HW1 1527   0.984   1.324   5.119
  501SOL    HW2 1528   1.147   1.321   5.113
  502SOL     OW 1529   1.111   1.195   4.824
  502SOL    HW1 1530   1.071   1.239   4.905
  502SOL    HW2 1531   1.070   1.232   4.741
  503SOL     OW 1532   1.638   1.099   4.803
  503SOL    HW1 1533   1.643   1.180   4.862
  503SOL    HW2 1534   1.552   1.101   4.752
  504SOL     OW 1535   0.705   1.050   4.092
  504SOL    HW1 1536   0.691   1.057   4.191
  504SOL    HW2 1537   0.789   0.999   4.074
  505SOL     OW 1538   0.410   0.813   4.975
  505SOL    HW1 1539   0.496   0.825   5.025
  505SOL    HW2 1540   0.368   0.726   5.002
  506SOL     OW 1541   1.274   0.386   4.986
  506SOL    HW1 1542   1.295   0.460   5.050
  506SOL    HW2 1543   1.185   0.403   4.943
  507SOL     OW 1544   0.064   1.564   5.055
  507SOL    HW1 1545   0.018   1.646   5.021
  507SOL    HW2 1546   0.162   1.583   5.064
  508SOL     OW 1547   0.367   1.100   4.225
  508SOL    HW1 1548   0.360   1.183   4.169
  508SOL    HW2 1549   0.371   1.020   4.165
  509SOL     OW 1550   0.566   0.537   4.589
  509SOL    HW1 1551   0.578   0.603   4.515
  509SOL    HW2 1552   0.612   0.571   4.672
  510SOL     OW 1553   1.252   1.348   4.112
  510SOL    HW1 1554   1.302   1.425   4.152
  510SOL    HW2 1555   1.157   1.350   4.144
  511SOL     OW 1556   1.272   1.445   4.866
  511SOL    HW1 1557   1.319   1.458   4.953
  511SOL    HW2 1558   1.206   1.371   4.875
  512SOL     OW 1559   1.582   0.639   4.196
  512SOL    HW1 1560   1.551   0.700   4.269
  512SOL    HW2 1561   1.632   0.691   4.127
  513SOL     OW 1562   0.354   1.510   5.053
  513SOL    HW1 1563   0.333   1.466   4.966
  513SOL    HW2 1564   0.451   1.536   5.056
  514SOL     OW 1565   0.573   0.870   4.753
  514SOL    HW1 1566   0.617   0.959   4.744
  514SOL    HW2 1567   0.510   0.870   4.830
  515SOL     OW 1568   1.360   0.862   4.769
  515SOL    HW1 1569   1.285   0.862   4.703
  515SOL    HW2 1570   1.397   0.770   4.778
  516SOL     OW 1571   1.209   0.525   3.999
  516SOL    HW1 1572   1.222   0.441   4.053
  516SOL    HW2 1573   1.180   0.599   4.059
  517SOL     OW 1574   0.307   0.213   4.955
  517SOL    HW1 1575   0.284   0.250   5.045
  517SOL    HW2 1576   0.277   0.118   4.949
  518SOL     OW 1577   0.037   1.310   5.006
  518SOL    HW1 1578   0.090   1.261   5.074
  518SOL    HW2 1579   0.059   1.408   5.011
  519SOL     OW 1580   0.732   0.634   4.788
  519SOL    HW1 1581   0.791   0.608   4.712
  519SOL    HW2 1582   0.704   0.730   4.777
  520SOL     OW 1583   0.307   0.063   4.342
  520SOL    HW1 1584   0.296   0.157   4.375
  520SOL    HW2 1585   0.302   0.000   4.419
  521SOL     OW 1586   1.622   0.367   4.098
  521SOL    HW1 1587   1.624   0.291   4.162
  521SOL    HW2 1588   1.574   0.444   4.138
  522SOL     OW 1589   1.023   0.766   4.690
  522SOL    HW1 1590   1.038   0.787   4.786
  522SOL    HW2 1591   0.993   0.671   4.681
  523SOL     OW 1592   1.540   0.274   3.849
  523SOL    HW1 1593   1.479   0.199   3.872
  523SOL    HW2 1594   1.562   0.326   3.932
  524SOL     OW 1595   1.303   0.838   3.766
  524SOL    HW1 1596   1.337   0.745   3.781
  524SOL    HW2 1597   1.321   0.865   3.671
  525SOL     OW 1598   1.068   1.333   4.573
  525SOL    HW1 1599   1.075   1.249   4.518
  525SOL    HW2 1600   1.130   1.402   4.537
  526SOL     OW 1601   0.319   0.810   4.673
  526SOL    HW1 1602   0.412   0.846   4.678
  526SOL    HW2 1603   0.313   0.725   4.725
  527SOL     OW 1604   0.339   0.509   4.730
  527SOL    HW1 1605   0.287   0.426   4.713
  527SOL    HW2 1606   0.416   0.514   4.666
  528SOL     OW 1607   1.160   0.207   5.201
  528SOL    HW1 1608   1.160   0.271   5.278
  528SOL    HW2 1609   1.188   0.255   5.118
  529SOL     OW 1610   0.008   1.326   3.924
  529SOL    HW1 1611  -0.085   1.347   3.893
  529SOL    HW2 1612   0.018   1.227   3.937
  530SOL     OW 1613   0.088   1.801   4.651
  530SOL    HW1 1614   0.046   1.715   4.624
  530SOL    HW2 1615   0.182   1.804   4.617
  531SOL     OW 1616   0.504   1.568   4.634
  531SOL    HW1 1617   0.570   1.642   4.643
  531SOL    HW2 1618   0.548   1.489   4.592
  532SOL     OW 1619   1.002   0.796   4.962
  532SOL    HW1 1620   1.043   0.764   5.048
  532SOL    HW2 1621   0.906   0.769   4.959
  533SOL     OW 1622   0.040   0.544   4.838
  533SOL    HW1 1623   0.125   0.511   4.797
  533SOL    HW2 1624   0.053   0.559   4.936
  534SOL     OW 1625   0.815   0.572   4.049
  534SOL    HW1 1626   0.822   0.483   4.003
  534SOL    HW2 1627   0.721   0.606   4.041
  535SOL     OW 1628   1.657   0.604   4.930
  535SOL    HW1 1629   1.619   0.535   4.992
  535SOL    HW2 1630   1.739   0.568   4.886
  536SOL     OW 1631   0.671   0.464   4.993
  536SOL    HW1 1632   0.637   0.375   4.963
  536SOL    HW2 1633   0.697   0.518   4.913
  537SOL     OW 1634   0.930   1.678   5.189
  537SOL    HW1 1635   0.906   1.660   5.094
  537SOL    HW2 1636   0.960   1.772   5.199
  538SOL     OW 1637   0.473   0.500   3.915
  538SOL    HW1 1638   0.534   0.580   3.919
  538SOL    HW2 1639   0.378   0.531   3.922
  539SOL     OW 1640   0.159   1.137   5.190
  539SOL    HW1 1641   0.181   1.076   5.266
  539SOL    HW2 1642   0.169   1.088   5.104
  540SOL     OW 1643   1.347   1.059   4.958
  540SOL    HW1 1644   1.371   0.996   4.884
  540SOL    HW2 1645   1.257   1.099   4.940
  541SOL     OW 1646   1.302   0.855   4.033
  541SOL    HW1 1647   1.216   0.824   4.075
  541SOL    HW2 1648   1.298   0.841   3.934
  542SOL     OW 1649   1.759   1.747   4.878
  542SOL    HW1 1650   1.820   1.777   4.805
  542SOL    HW2 1651   1.721   1.658   4.856
  543SOL     OW 1652   1.252   1.731   4.852
  543SOL    HW1 1653   1.336   1.736   4.798
  543SOL    HW2 1654   1.229   1.635   4.870
  544SOL     OW 1655   0.083   1.258   4.746
  544SOL    HW1 1656   0.078   1.257   4.846
  544SOL    HW2 1657   0.000   1.217   4.708
  545SOL     OW 1658   1.726   0.135   4.247
  545SOL    HW1 1659   1.799   0.118   4.180
  545SOL    HW2 1660   1.695   0.048   4.285
  546SOL     OW 1661   1.388   1.573   4.201
  546SOL    HW1 1662   1.455   1.585   4.127
  546SOL    HW2 1663   1.348   1.662   4.224
  547SOL     OW 1664   1.280   0.927   4.396
  547SOL    HW1 1665   1.340   0.846   4.398
  547SOL    HW2 1666   1.320   0.996   4.336
  548SOL     OW 1667   0.672   1.616   3.878
  548SOL    HW1 1668   0.681   1.626   3.779
  548SOL    HW2 1669   0.632   1.527   3.899
  549SOL     OW 1670   1.841   0.175   4.687
  549SOL    HW1 1671   1.880   0.090   4.651
  549SOL    HW2 1672   1.743   0.177   4.668
  550SOL     OW 1673   0.263   0.326   4.444
  550SOL    HW1 1674   0.184   0.377   4.410
  550SOL    HW2 1675   0.254   0.311   4.542
  551SOL     OW 1676   1.194   1.612   3.755
  551SOL    HW1 1677   1.200   1.519   3.792
  551SOL    HW2 1678   1.135   1.612   3.675
  552SOL     OW 1679   0.822   1.002   5.096
  552SOL    HW1 1680   0.862   1.001   5.004
  552SOL    HW2 1681   0.832   1.094   5.136
  553SOL     OW 1682   0.916   0.910   4.015
  553SOL    HW1 1683   0.979   0.948   3.947
  553SOL    HW2 1684   0.956   0.827   4.054
  554SOL     OW 1685   1.504   1.607   3.768
  554SOL    HW1 1686   1.412   1.644   3.775
  554SOL    HW2 1687   1.542   1.627   3.678
  555SOL     OW 1688   0.372   1.288   5.214
  555SOL    HW1 1689   0.359   1.381   5.180
  555SOL    HW2 1690   0.288   1.236   5.201
  556SOL     OW 1691   1.614   1.292   5.013
  556SOL    HW1 1692   1.674   1.295   5.093
  556SOL    HW2 1693   1.539   1.356   5.026
  557SOL     OW 1694   1.039   1.098   4.420
  557SOL    HW1 1695   0.969   1.051   4.474
  557SOL    HW2 1696   1.098   1.030   4.377
  558SOL     OW 1697   1.014   0.236   4.695
  558SOL    HW1 1698   1.006   0.200   4.602
  558SOL    HW2 1699   1.012   0.160   4.760
  559SOL     OW 1700   0.590   1.487   4.215
  559SOL    HW1 1701   0.632   1.429   4.145
  559SOL    HW2 1702   0.546   1.566   4.171
  560SOL     OW 1703   1.709   0.385   5.105
  560SOL    HW1 1704   1.782   0.454   5.109
  560SOL    HW2 1705   1.737   0.310   5.046
  561SOL     OW 1706   0.255   1.348   4.014
  561SOL    HW1 1707   0.159   1.349   3.987
  561SOL    HW2 1708   0.267   1.401   4.098
  562SOL     OW 1709   0.075   0.345   3.757
  562SOL    HW1 1710  -0.017   0.317   3.728
  562SOL    HW2 1711   0.106   0.422   3.701
  563SOL     OW 1712   0.072   0.166   4.042
  563SOL    HW1 1713   0.055   0.249   3.988
  563SOL    HW2 1714   0.162   0.129   4.020
  564SOL     OW 1715   1.183   1.335   3.843
  564SOL    HW1 1716   1.084   1.324   3.845
  564SOL    HW2 1717   1.217   1.350   3.936
  565SOL     OW 1718   0.613   0.842   5.155
  565SOL    HW1 1719   0.669   0.923   5.138
  565SOL    HW2 1720   0.672   0.762   5.158
  566SOL     OW 1721   1.493   1.767   4.683
  566SOL    HW1 1722   1.526   1.831   4.614
  566SOL    HW2 1723   1.559   1.761   4.758
  567SOL     OW 1724   0.390   1.741   5.284
  567SOL    HW1 1725   0.299   1.782   5.282
  567SOL    HW2 1726   0.383   1.647   5.316
  568SOL     OW 1727   1.674   0.883   4.978
  568SOL    HW1 1728   1.647   0.794   4.941
  568SOL    HW2 1729   1.675   0.951   4.905
  569SOL     OW 1730   1.225   0.325   4.173
  569SOL    HW1 1731   1.290   0.251   4.162
  569SOL    HW2 1732   1.245   0.375   4.257
  570SOL     OW 1733   0.594   0.745   4.376
  570SOL    HW1 1734   0.644   0.830   4.357
  570SOL    HW2 1735   0.506   0.747   4.328
  571SOL     OW 1736   1.730   0.934   5.241
  571SOL    HW1 1737   1.768   1.025   5.256
  571SOL    HW2 1738   1.722   0.917   5.142
  572SOL     OW 1739   0.859   1.374   3.740
  572SOL    HW1 1740   0.813   1.389   3.828
  572SOL    HW2 1741   0.903   1.459   3.710
  573SOL     OW 1742   0.661   1.790   4.677
  573SOL    HW1 1743   0.615   1.878   4.664
  573SOL    HW2 1744   0.760   1.802   4.670
  574SOL     OW 1745   0.859   0.956   4.585
  574SOL    HW1 1746   0.913   0.887   4.633
  574SOL    HW2 1747   0.827   1.025   4.651
  575SOL     OW 1748   1.083   0.984   3.811
  575SOL    HW1 1749   1.060   1.037   3.729
  575SOL    HW2 1750   1.164   0.928   3.792
  576SOL     OW 1751   1.861   1.569   4.575
  576SOL    HW1 1752   1.790   1.557   4.505
  576SOL    HW2 1753   1.862   1.490   4.635
  577SOL     OW 1754   0.079   1.240   4.377
  577SOL    HW1 1755   0.078   1.193   4.465
  577SOL    HW2 1756   0.161   1.212   4.326
  578SOL     OW 1757   1.824   0.192   4.951
  578SOL    HW1 1758   1.820   0.102   4.995
  578SOL    HW2 1759   1.827   0.181   4.852
  579SOL     OW 1760   0.428   0.424   4.244
  579SOL    HW1 1761   0.458   0.352   4.182
  579SOL    HW2 1762   0.389   0.384   4.327
  580SOL     OW 1763   1.705   1.487   4.828
  580SOL    HW1 1764   1.612   1.462   4.801
  580SOL    HW2 1765   1.731   1.437   4.910
  581SOL     OW 1766   0.317   0.547   5.004
  581SOL    HW1 1767   0.355   0.488   5.076
  581SOL    HW2 1768   0.357   0.521   4.916
  582SOL     OW 1769   0.812   1.586   4.411
  582SOL    HW1 1770   0.844   1.596   4.317
  582SOL    HW2 1771   0.733   1.524   4.413
  583SOL     OW 1772   1.424   0.214   4.836
  583SOL    HW1 1773   1.476   0.149   4.891
  583SOL    HW2 1774   1.375   0.277   4.897
  584SOL     OW 1775   1.001   0.034   4.878
  584SOL    HW1 1776   0.938  -0.038   4.847
  584SOL    HW2 1777   1.094  -0.002   4.878
  585SOL     OW 1778   0.770   1.330   4.025
  585SOL    HW1 1779   0.724   1.243   4.042
  585SOL    HW2 1780   0.861   1.327   4.066
  586SOL     OW 1781   0.618   1.567   5.008
  586SOL    HW1 1782   0.613   1.649   5.065
  586SOL    HW2 1783   0.707   1.564   4.963
  587SOL     OW 1784   1.352   0.052   3.892
  587SOL    HW1 1785   1.387   0.011   3.808
  587SOL    HW2 1786   1.262   0.014   3.912
  588SOL     OW 1787   1.300   0.453   4.415
  588SOL    HW1 1788   1.241   0.533   4.419
  588SOL    HW2 1789   1.315   0.418   4.508
  589SOL     OW 1790   1.593   0.221   4.606
  589SOL    HW1 1791   1.509   0.220   4.660
  589SOL    HW2 1792   1.595   0.304   4.550
  590SOL     OW 1793   0.039   1.077   4.024
  590SOL    HW1 1794   0.138   1.066   4.015
  590SOL    HW2 1795  -0.001   0.991   4.056
  591SOL     OW 1796   0.875   1.646   4.061
  591SOL    HW1 1797   0.798   1.611   4.007
  591SOL    HW2 1798   0.843   1.717   4.123
  592SOL     OW 1799   0.230   2.490   0.113
  592SOL    HW1 1800   0.137   2.488   0.150
  592SOL    HW2 1801   0.231   2.451   0.021
  593SOL     OW 1802   0.225   2.137   0.996
  593SOL    HW1 1803   0.260   2.120   1.088
  593SOL    HW2 1804   0.137   2.092   0.984
  594SOL     OW 1805   0.019   2.230   0.647
  594SOL    HW1 1806  -0.063   2.273   0.686
  594SOL    HW2 1807  -0.009   2.157   0.584
  595SOL     OW 1808   0.569   3.137   1.165
  595SOL    HW1 1809   0.476   3.130   1.128
  595SOL    HW2 1810   0.580   3.226   1.209
  596SOL     OW 1811   1.555   3.373   0.703
  596SOL    HW1 1812   1.498   3.357   0.784
  596SOL    HW2 1813   1.496   3.383   0.623
  597SOL     OW 1814   1.135   2.565   0.717
  597SOL    HW1 1815   1.192   2.643   0.692
  597SOL    HW2 1816   1.075   2.591   0.793
  598SOL     OW 1817   1.755   2.469   0.231
  598SOL    HW1 1818   1.743   2.456   0.132
  598SOL    HW2 1819   1.725   2.388   0.280
  599SOL     OW 1820   0.768   3.006   1.023
  599SOL    HW1 1821   0.690   3.023   1.083
  599SOL    HW2 1822   0.802   3.093   0.987
  600SOL     OW 1823   0.850   2.660   1.823
  600SOL    HW1 1824   0.846   2.736   1.888
  600SOL    HW2 1825   0.872   2.696   1.732
  601SOL     OW 1826   0.685   2.874   0.665
  601SOL    HW1 1827   0.754   2.858   0.735
  601SOL    HW2 1828   0.612   2.931   0.703
  602SOL     OW 1829   0.686   3.023   1.803
  602SOL    HW1 1830   0.746   3.102   1.817
  602SOL    HW2 1831   0.600   3.054   1.762
  603SOL     OW 1832   0.335   3.297   1.061
  603SOL    HW1 1833   0.257   3.266   1.008
  603SOL    HW2 1834   0.393   3.355   1.004
  604SOL     OW 1835   1.460   3.367   1.339
  604SOL    HW1 1836   1.484   3.461   1.365
  604SOL    HW2 1837   1.444   3.313   1.421
  605SOL     OW 1838   0.438   2.254   1.499
  605SOL    HW1 1839   0.520   2.198   1.508
  605SOL    HW2 1840   0.357   2.196   1.503
  606SOL     OW 1841   1.603   2.309   0.737
  606SOL    HW1 1842   1.529   2.355   0.687
  606SOL    HW2 1843   1.654   2.377   0.790
  607SOL     OW 1844   0.231   3.575   0.483
  607SOL    HW1 1845   0.265   3.652   0.537
  607SOL    HW2 1846   0.275   3.575   0.393
  608SOL     OW 1847   1.127   3.203   1.690
  608SOL    HW1 1848   1.174   3.203   1.778
  608SOL    HW2 1849   1.079   3.116   1.679
  609SOL     OW 1850   0.230   3.296   0.538
  609SOL    HW1 1851   0.204   3.392   0.538
  609SOL    HW2 1852   0.159   3.242   0.583
  610SOL     OW 1853   0.240   2.953   0.886
  610SOL    HW1 1854   0.254   2.869   0.938
  610SOL    HW2 1855   0.185   3.017   0.941
  611SOL     OW 1856   0.620   3.648   1.439
  611SOL    HW1 1857   0.528   3.631   1.474
  611SOL    HW2 1858   0.648   3.740   1.465
  612SOL     OW 1859   0.606   2.826   0.123
  612SOL    HW1 1860   0.613   2.910   0.069
  612SOL    HW2 1861   0.652   2.839   0.211
  613SOL     OW 1862   1.594   1.976   1.480
  613SOL    HW1 1863   1.576   2.043   1.408
  613SOL    HW2 1864   1.591   2.022   1.569
  614SOL     OW 1865   0.122   2.505   0.563
  614SOL    HW1 1866   0.077   2.417   0.580
  614SOL    HW2 1867   0.121   2.559   0.647
  615SOL     OW 1868   1.842   3.629   0.359
  615SOL    HW1 1869   1.896   3.600   0.439
  615SOL    HW2 1870   1.872   3.719   0.330
  616SOL     OW 1871   0.027   3.458   0.117
  616SOL    HW1 1872   0.008   3.362   0.138
  616SOL    HW2 1873  -0.006   3.516   0.192
  617SOL     OW 1874   1.689   2.784   0.612
  617SOL    HW1 1875   1.784   2.755   0.620
  617SOL    HW2 1876   1.681   2.849   0.537
  618SOL     OW 1877   1.641   2.970   0.432
  618SOL    HW1 1878   1.727   2.972   0.380
  618SOL    HW2 1879   1.655   3.017   0.520
  619SOL     OW 1880   0.113   2.599   1.597
  619SOL    HW1 1881   0.201   2.586   1.642
  619SOL    HW2 1882   0.100   2.696   1.575
  620SOL     OW 1883   0.613   3.227   0.726
  620SOL    HW1 1884   0.564   3.140   0.735
  620SOL    HW2 1885   0.590   3.270   0.639
  621SOL     OW 1886   1.293   3.090   1.423
  621SOL    HW1 1887   1.330   3.017   1.365
  621SOL    HW2 1888   1.345   3.095   1.508
  622SOL     OW 1889   0.809   1.866   0.502
  622SOL    HW1 1890   0.849   1.957   0.493
  622SOL    HW2 1891   0.709   1.874   0.508
  623SOL     OW 1892   0.197   2.838   1.264
  623SOL    HW1 1893   0.286   2.793   1.250
  623SOL    HW2 1894   0.124   2.773   1.245
  624SOL     OW 1895   1.525   2.861   0.190
  624SOL    HW1 1896   1.462   2.785   0.203
  624SOL    HW2 1897   1.573   2.879   0.276
  625SOL     OW 1898   1.187   3.654   1.616
  625SOL    HW1 1899   1.211   3.714   1.540
  625SOL    HW2 1900   1.194   3.559   1.586
  626SOL     OW 1901   0.317   2.113   1.801
  626SOL    HW1 1902   0.388   2.184   1.807
  626SOL    HW2 1903   0.229   2.152   1.829
  627SOL     OW 1904   1.466   3.279   0.953
  627SOL    HW1 1905   1.407   3.285   1.033
  627SOL    HW2 1906   1.451   3.191   0.907
  628SOL     OW 1907   1.667   3.576   0.572
  628SOL    HW1 1908   1.626   3.553   0.484
  628SOL    HW2 1909   1.649   3.502   0.637
  629SOL     OW 1910   0.598   2.591   0.270
  629SOL    HW1 1911   0.622   2.660   0.202
  629SOL    HW2 1912   0.520   2.624   0.324
  630SOL     OW 1913   1.281   2.207   0.944
  630SOL    HW1 1914   1.195   2.157   0.931
  630SOL    HW2 1915   1.343   2.153   1.000
  631SOL     OW 1916   1.576   3.524   0.307
  631SOL    HW1 1917   1.665   3.570   0.310
  631SOL    HW2 1918   1.555   3.500   0.212
  632SOL     OW 1919   0.807   2.467   1.465
  632SOL    HW1 1920   0.760   2.464   1.554
  632SOL    HW2 1921   0.756   2.412   1.399
  633SOL     OW 1922   1.394   2.331   1.674
  633SOL    HW1 1923   1.374   2.374   1.762
  633SOL    HW2 1924   1.472   2.269   1.683
  634SOL     OW 1925   0.973   2.752   1.572
  634SOL    HW1 1926   1.019   2.668   1.543
  634SOL    HW2 1927   0.917   2.786   1.497
  635SOL     OW 1928   0.991   2.272   1.242
  635SOL    HW1 1929   0.914   2.306   1.296
  635SOL    HW2 1930   0.957   2.221   1.163
  636SOL     OW 1931   1.041   2.563   0.429
  636SOL    HW1 1932   1.067   2.559   0.525
  636SOL    HW2 1933   0.956   2.512   0.415
  637SOL     OW 1934   0.076   2.673   0.789
  637SOL    HW1 1935   0.175   2.661   0.798
  637SOL    HW2 1936   0.052   2.768   0.810
  638SOL     OW 1937   0.130   3.683   1.571
  638SOL    HW1 1938   0.120   3.668   1.670
  638SOL    HW2 1939   0.044   3.719   1.535
  639SOL     OW 1940   0.865   2.210   0.195
  639SOL    HW1 1941   0.924   2.273   0.146
  639SOL    HW2 1942   0.884   2.116   0.166
  640SOL     OW 1943   1.719   2.447   1.831
  640SOL    HW1 1944   1.693   2.536   1.795
  640SOL    HW2 1945   1.717   2.379   1.758
  641SOL     OW 1946   1.362   3.006   0.545
  641SOL    HW1 1947   1.445   2.977   0.497
  641SOL    HW2 1948   1.313   3.073   0.489
  642SOL     OW 1949   0.550   2.058   0.885
  642SOL    HW1 1950   0.545   2.053   0.985
  642SOL    HW2 1951   0.552   2.154   0.856
  643SOL     OW 1952   1.008   3.318   0.477
  643SOL    HW1 1953   0.962   3.390   0.425
  643SOL    HW2 1954   1.004   3.338   0.575
  644SOL     OW 1955   0.351   3.663   0.853
  644SOL    HW1 1956   0.401   3.577   0.859
  644SOL    HW2 1957   0.416   3.740   0.850
  645SOL     OW 1958   1.795   2.928   0.873
  645SOL    HW1 1959   1.733   2.913   0.797
  645SOL    HW2 1960   1.743   2.939   0.958
  646SOL     OW 1961   1.227   3.412   1.506
  646SOL    HW1 1962   1.233   3.335   1.570
  646SOL    HW2 1963   1.175   3.386   1.426
  647SOL     OW 1964   0.321   2.805   0.242
  647SOL    HW1 1965   0.403   2.844   0.200
  647SOL    HW2 1966   0.294   2.723   0.193
  648SOL     OW 1967   1.458   2.597   0.728
  648SOL    HW1 1968   1.453   2.532   0.803
  648SOL    HW2 1969   1.538   2.656   0.741
  649SOL     OW 1970   0.461   3.128   1.727
  649SOL    HW1 1971   0.411   3.129   1.641
  649SOL    HW2 1972   0.398   3.110   1.803
  650SOL     OW 1973   1.111   3.638   0.237
  650SOL    HW1 1974   1.051   3.576   0.287
  650SOL    HW2 1975   1.142   3.594   0.152
  651SOL     OW 1976   0.202   2.147   1.498
  651SOL    HW1 1977   0.122   2.207   1.485
  651SOL    HW2 1978   0.192   2.098   1.584
  652SOL     OW 1979   1.632   3.239   0.081
  652SOL    HW1 1980   1.600   3.333   0.071
  652SOL    HW2 1981   1.556   3.176   0.069
  653SOL     OW 1982   0.464   3.605   0.323
  653SOL    HW1 1983   0.497   3.644   0.409
  653SOL    HW2 1984   0.540   3.598   0.258
  654SOL     OW 1985   1.400   1.969   0.426
  654SOL    HW1 1986   1.376   1.932   0.336
  654SOL    HW2 1987   1.499   1.985   0.430
  655SOL     OW 1988   0.249   3.647   1.241
  655SOL    HW1 1989   0.306   3.582   1.291
  655SOL    HW2 1990   0.233   3.614   1.148
  656SOL     OW 1991   0.940   3.560   0.904
  656SOL    HW1 1992   1.020   3.503   0.925
  656SOL    HW2 1993   0.891   3.520   0.827
  657SOL     OW 1994   0.382   2.562   0.480
  657SOL    HW1 1995   0.427   2.472   0.477
  657SOL    HW2 1996   0.288   2.551   0.513
  658SOL     OW 1997   1.547   2.084   1.729
  658SOL    HW1 1998   1.542   2.121   1.821
  658SOL    HW2 1999   1.475   2.015   1.717
  659SOL     OW 2000   0.781   2.126   1.749
  659SOL    HW1 2001   0.848   2.065   1.792
  659SOL    HW2 2002   0.708   2.145   1.814
  660SOL     OW 2003   0.888   3.376   1.195
  660SOL    HW1 2004   0.865   3.351   1.101
  660SOL    HW2 2005   0.949   3.307   1.234
  661SOL     OW 2006   1.351   2.452   1.433
  661SOL    HW1 2007   1.379   2.409   1.518
  661SOL    HW2 2008   1.376   2.548   1.434
  662SOL     OW 2009   0.803   3.264   0.924
  662SOL    HW1 2010   0.893   3.278   0.882
  662SOL    HW2 2011   0.732   3.266   0.853
  663SOL     OW 2012   0.922   2.365   0.899
  663SOL    HW1 2013   0.897   2.356   0.803
  663SOL    HW2 2014   0.970   2.283   0.930
  664SOL     OW 2015   0.539   1.926   0.512
  664SOL    HW1 2016   0.458   1.927   0.570
  664SOL    HW2 2017   0.542   2.009   0.457
  665SOL     OW 2018   1.434   3.050   0.041
  665SOL    HW1 2019   1.466   2.974   0.098
  665SOL    HW2 2020   1.342   3.077   0.071
  666SOL     OW 2021   0.935   2.098   0.480
  666SOL    HW1 2022   0.887   2.139   0.402
  666SOL    HW2 2023   1.034   2.096   0.461
  667SOL     OW 2024   1.076   2.545   1.464
  667SOL    HW1 2025   0.996   2.484   1.467
  667SOL    HW2 2026   1.157   2.492   1.440
  668SOL     OW 2027   1.227   3.432   0.793
  668SOL    HW1 2028   1.248   3.506   0.728
  668SOL    HW2 2029   1.295   3.432   0.866
  669SOL     OW 2030   0.459   3.014   0.741
  669SOL    HW1 2031   0.388   2.987   0.806
  669SOL    HW2 2032   0.433   2.986   0.648
  670SOL     OW 2033   1.271   3.659   0.591
  670SOL    HW1 2034   1.315   3.723   0.527
  670SOL    HW2 2035   1.221   3.711   0.661
  671SOL     OW 2036   1.032   2.411   0.016
  671SOL    HW1 2037   0.991   2.493  -0.023
  671SOL    HW2 2038   1.096   2.437   0.089
  672SOL     OW 2039   0.078   2.418   1.386
  672SOL    HW1 2040   0.170   2.417   1.345
  672SOL    HW2 2041   0.072   2.492   1.453
  673SOL     OW 2042   0.561   2.084   1.147
  673SOL    HW1 2043   0.599   2.000   1.184
  673SOL    HW2 2044   0.473   2.103   1.191
  674SOL     OW 2045   0.866   2.316   0.642
  674SOL    HW1 2046   0.834   2.388   0.580
  674SOL    HW2 2047   0.890   2.235   0.589
  675SOL     OW 2048   1.017   1.901   0.753
  675SOL    HW1 2049   0.945   1.906   0.684
  675SOL    HW2 2050   0.993   1.832   0.822
  676SOL     OW 2051   1.429   3.035   0.867
  676SOL    HW1 2052   1.374   2.951   0.860
  676SOL    HW2 2053   1.455   3.064   0.775
  677SOL     OW 2054   1.466   2.452   0.992
  677SOL    HW1 2055   1.436   2.357   0.999
  677SOL    HW2 2056   1.539   2.468   1.058
  678SOL     OW 2057   1.857   2.695   0.377
  678SOL    HW1 2058   1.899   2.631   0.441
  678SOL    HW2 2059   1.819   2.644   0.299
  679SOL     OW 2060   0.488   3.247   0.174
  679SOL    HW1 2061   0.401   3.232   0.221
  679SOL    HW2 2062   0.471   3.273   0.079
  680SOL     OW 2063   1.664   3.142   0.657
  680SOL    HW1 2064   1.763   3.150   0.671
  680SOL    HW2 2065   1.619   3.226   0.688
  681SOL     OW 2066   1.390   2.437   0.078
  681SOL    HW1 2067   1.336   2.416   0.159
  681SOL    HW2 2068   1.481   2.396   0.087
  682SOL     OW 2069   0.527   2.118   0.328
  682SOL    HW1 2070   0.554   2.059   0.253
  682SOL    HW2 2071   0.527   2.213   0.297
  683SOL     OW 2072   1.754   3.085   1.588
  683SOL    HW1 2073   1.845   3.046   1.575
  683SOL    HW2 2074   1.762   3.181   1.612
  684SOL     OW 2075   1.064   3.209   1.340
  684SOL    HW1 2076   0.984   3.186   1.395
  684SOL    HW2 2077   1.147   3.183   1.389
  685SOL     OW 2078   1.592   3.491   1.625
  685SOL    HW1 2079   1.619   3.525   1.535
  685SOL    HW2 2080   1.671   3.453   1.671
  686SOL     OW 2081   1.111   3.057   1.100
  686SOL    HW1 2082   1.071   3.101   1.181
  686SOL    HW2 2083   1.070   3.094   1.017
  687SOL     OW 2084   1.638   2.961   1.079
  687SOL    HW1 2085   1.643   3.042   1.138
  687SOL    HW2 2086   1.552   2.963   1.028
  688SOL     OW 2087   0.915   1.951   1.402
  688SOL    HW1 2088   0.940   1.931   1.307
  688SOL    HW2 2089   0.987   2.007   1.444
  689SOL     OW 2090   0.980   2.978   1.719
  689SOL    HW1 2091   0.881   2.984   1.729
  689SOL    HW2 2092   1.003   2.898   1.663
  690SOL     OW 2093   0.705   2.912   0.368
  690SOL    HW1 2094   0.691   2.919   0.467
  690SOL    HW2 2095   0.789   2.861   0.350
  691SOL     OW 2096   0.410   2.675   1.251
  691SOL    HW1 2097   0.496   2.687   1.301
  691SOL    HW2 2098   0.368   2.588   1.278
  692SOL     OW 2099   1.274   2.248   1.262
  692SOL    HW1 2100   1.295   2.322   1.326
  692SOL    HW2 2101   1.185   2.265   1.219
  693SOL     OW 2102   0.064   3.426   1.331
  693SOL    HW1 2103   0.018   3.508   1.297
  693SOL    HW2 2104   0.162   3.445   1.340
  694SOL     OW 2105   0.367   2.962   0.501
  694SOL    HW1 2106   0.360   3.045   0.445
  694SOL    HW2 2107   0.371   2.882   0.441
  695SOL     OW 2108   0.566   2.399   0.865
  695SOL    HW1 2109   0.578   2.465   0.791
  695SOL    HW2 2110   0.612   2.433   0.948
  696SOL     OW 2111   1.252   3.210   0.388
  696SOL    HW1 2112   1.302   3.287   0.428
  696SOL    HW2 2113   1.157   3.212   0.420
  697SOL     OW 2114   1.272   3.307   1.142
  697SOL    HW1 2115   1.319   3.320   1.229
  697SOL    HW2 2116   1.206   3.233   1.151
  698SOL     OW 2117   1.582   2.501   0.472
  698SOL    HW1 2118   1.551   2.562   0.545
  698SOL    HW2 2119   1.632   2.553   0.403
  699SOL     OW 2120   0.354   3.372   1.329
  699SOL    HW1 2121   0.333   3.328   1.242
  699SOL    HW2 2122   0.451   3.398   1.332
  700SOL     OW 2123   0.402   2.613   1.598
  700SOL    HW1 2124   0.470   2.668   1.551
  700SOL    HW2 2125   0.442   2.525   1.625
  701SOL     OW 2126   1.587   2.641   1.670
  701SOL    HW1 2127   1.495   2.679   1.665
  701SOL    HW2 2128   1.647   2.688   1.605
  702SOL     OW 2129   1.013   1.967   1.770
  702SOL    HW1 2130   1.019   2.052   1.718
  702SOL    HW2 2131   1.045   1.891   1.713
  703SOL     OW 2132   0.504   1.912   1.740
  703SOL    HW1 2133   0.462   1.855   1.670
  703SOL    HW2 2134   0.438   1.981   1.772
  704SOL     OW 2135   0.573   2.732   1.029
  704SOL    HW1 2136   0.617   2.821   1.020
  704SOL    HW2 2137   0.510   2.732   1.106
  705SOL     OW 2138   1.360   2.724   1.045
  705SOL    HW1 2139   1.285   2.724   0.979
  705SOL    HW2 2140   1.397   2.632   1.054
  706SOL     OW 2141   1.209   2.387   0.275
  706SOL    HW1 2142   1.222   2.303   0.329
  706SOL    HW2 2143   1.180   2.461   0.335
  707SOL     OW 2144   0.307   2.075   1.231
  707SOL    HW1 2145   0.284   2.112   1.321
  707SOL    HW2 2146   0.277   1.980   1.225
  708SOL     OW 2147   0.037   3.172   1.282
  708SOL    HW1 2148   0.090   3.123   1.350
  708SOL    HW2 2149   0.059   3.270   1.287
  709SOL     OW 2150   0.732   2.496   1.064
  709SOL    HW1 2151   0.791   2.470   0.988
  709SOL    HW2 2152   0.704   2.592   1.053
  710SOL     OW 2153   1.728   2.797   1.854
  710SOL    HW1 2154   1.682   2.790   1.765
  710SOL    HW2 2155   1.666   2.841   1.920
  711SOL     OW 2156   0.307   1.925   0.618
  711SOL    HW1 2157   0.296   2.019   0.651
  711SOL    HW2 2158   0.302   1.862   0.695
  712SOL     OW 2159   1.622   2.229   0.374
  712SOL    HW1 2160   1.624   2.153   0.438
  712SOL    HW2 2161   1.574   2.306   0.414
  713SOL     OW 2162   1.023   2.628   0.966
  713SOL    HW1 2163   1.038   2.649   1.062
  713SOL    HW2 2164   0.993   2.533   0.957
  714SOL     OW 2165   0.980   3.435   1.700
  714SOL    HW1 2166   0.960   3.479   1.612
  714SOL    HW2 2167   1.019   3.344   1.684
  715SOL     OW 2168   1.859   3.380   1.605
  715SOL    HW1 2169   1.873   3.407   1.510
  715SOL    HW2 2170   1.942   3.402   1.658
  716SOL     OW 2171   0.350   2.760   1.804
  716SOL    HW1 2172   0.426   2.804   1.852
  716SOL    HW2 2173   0.385   2.713   1.722
  717SOL     OW 2174   1.540   2.136   0.125
  717SOL    HW1 2175   1.479   2.061   0.148
  717SOL    HW2 2176   1.562   2.188   0.208
  718SOL     OW 2177   1.303   2.700   0.042
  718SOL    HW1 2178   1.337   2.607   0.057
  718SOL    HW2 2179   1.321   2.727  -0.053
  719SOL     OW 2180   1.068   3.195   0.849
  719SOL    HW1 2181   1.075   3.111   0.794
  719SOL    HW2 2182   1.130   3.264   0.813
  720SOL     OW 2183   0.319   2.672   0.949
  720SOL    HW1 2184   0.412   2.708   0.954
  720SOL    HW2 2185   0.313   2.587   1.001
  721SOL     OW 2186   0.339   2.371   1.006
  721SOL    HW1 2187   0.287   2.288   0.989
  721SOL    HW2 2188   0.416   2.376   0.942
  722SOL     OW 2189   1.138   2.242   1.678
  722SOL    HW1 2190   1.093   2.305   1.742
  722SOL    HW2 2191   1.231   2.273   1.661
  723SOL     OW 2192   1.160   2.069   1.477
  723SOL    HW1 2193   1.160   2.133   1.554
  723SOL    HW2 2194   1.188   2.117   1.394
  724SOL     OW 2195   0.008   3.188   0.200
  724SOL    HW1 2196  -0.085   3.209   0.169
  724SOL    HW2 2197   0.018   3.089   0.213
  725SOL     OW 2198   0.088   3.663   0.927
  725SOL    HW1 2199   0.046   3.577   0.900
  725SOL    HW2 2200   0.182   3.666   0.893
  726SOL     OW 2201   0.504   3.430   0.910
  726SOL    HW1 2202   0.570   3.504   0.919
  726SOL    HW2 2203   0.548   3.351   0.868
  727SOL     OW 2204   1.002   2.658   1.238
  727SOL    HW1 2205   1.043   2.626   1.324
  727SOL    HW2 2206   0.906   2.631   1.235
  728SOL     OW 2207   0.040   2.406   1.114
  728SOL    HW1 2208   0.125   2.373   1.073
  728SOL    HW2 2209   0.053   2.421   1.212
  729SOL     OW 2210   0.189   2.382   1.722
  729SOL    HW1 2211   0.248   2.342   1.652
  729SOL    HW2 2212   0.131   2.453   1.681
  730SOL     OW 2213   1.369   2.812   1.660
  730SOL    HW1 2214   1.408   2.901   1.680
  730SOL    HW2 2215   1.379   2.792   1.563
  731SOL     OW 2216   0.815   2.434   0.325
  731SOL    HW1 2217   0.822   2.345   0.279
  731SOL    HW2 2218   0.721   2.468   0.317
  732SOL     OW 2219   1.657   2.466   1.206
  732SOL    HW1 2220   1.619   2.397   1.268
  732SOL    HW2 2221   1.739   2.430   1.162
  733SOL     OW 2222   0.252   3.426   1.744
  733SOL    HW1 2223   0.222   3.483   1.820
  733SOL    HW2 2224   0.245   3.329   1.770
  734SOL     OW 2225   0.671   2.326   1.269
  734SOL    HW1 2226   0.637   2.237   1.239
  734SOL    HW2 2227   0.697   2.380   1.189
  735SOL     OW 2228   0.930   3.540   1.465
  735SOL    HW1 2229   0.906   3.522   1.370
  735SOL    HW2 2230   0.960   3.634   1.475
  736SOL     OW 2231   0.473   2.362   0.191
  736SOL    HW1 2232   0.534   2.442   0.195
  736SOL    HW2 2233   0.378   2.393   0.198
  737SOL     OW 2234   0.159   2.999   1.466
  737SOL    HW1 2235   0.181   2.938   1.542
  737SOL    HW2 2236   0.169   2.950   1.380
  738SOL     OW 2237   1.347   2.921   1.234
  738SOL    HW1 2238   1.371   2.858   1.160
  738SOL    HW2 2239   1.257   2.961   1.216
  739SOL     OW 2240   1.302   2.717   0.309
  739SOL    HW1 2241   1.216   2.686   0.351
  739SOL    HW2 2242   1.298   2.703   0.210
  740SOL     OW 2243   1.759   3.609   1.154
  740SOL    HW1 2244   1.820   3.639   1.081
  740SOL    HW2 2245   1.721   3.520   1.132
  741SOL     OW 2246   1.252   3.593   1.128
  741SOL    HW1 2247   1.336   3.598   1.074
  741SOL    HW2 2248   1.229   3.497   1.146
  742SOL     OW 2249   0.083   3.120   1.022
  742SOL    HW1 2250   0.078   3.119   1.122
  742SOL    HW2 2251   0.000   3.079   0.984
  743SOL     OW 2252   0.688   3.524   1.716
  743SOL    HW1 2253   0.632   3.605   1.725
  743SOL    HW2 2254   0.740   3.528   1.630
  744SOL     OW 2255   0.903   1.948   0.133
  744SOL    HW1 2256   0.954   1.949   0.047
  744SOL    HW2 2257   0.959   1.906   0.204
  745SOL     OW 2258   1.726   1.997   0.523
  745SOL    HW1 2259   1.799   1.980   0.456
  745SOL    HW2 2260   1.695   1.910   0.561
  746SOL     OW 2261   1.388   3.435   0.477
  746SOL    HW1 2262   1.455   3.447   0.403
  746SOL    HW2 2263   1.348   3.524   0.500
  747SOL     OW 2264   0.130   3.656   1.851
  747SOL    HW1 2265   0.089   3.582   1.904
  747SOL    HW2 2266   0.194   3.707   1.909
  748SOL     OW 2267   1.280   2.789   0.672
  748SOL    HW1 2268   1.340   2.708   0.674
  748SOL    HW2 2269   1.320   2.858   0.612
  749SOL     OW 2270   0.830   3.135   1.422
  749SOL    HW1 2271   0.825   3.168   1.517
  749SOL    HW2 2272   0.744   3.154   1.376
  750SOL     OW 2273   0.672   3.478   0.154
  750SOL    HW1 2274   0.681   3.488   0.055
  750SOL    HW2 2275   0.632   3.389   0.175
  751SOL     OW 2276   1.650   3.582   1.394
  751SOL    HW1 2277   1.703   3.592   1.310
  751SOL    HW2 2278   1.623   3.672   1.428
  752SOL     OW 2279   1.841   2.037   0.963
  752SOL    HW1 2280   1.880   1.952   0.927
  752SOL    HW2 2281   1.743   2.039   0.944
  753SOL     OW 2282   0.263   2.188   0.720
  753SOL    HW1 2283   0.184   2.239   0.686
  753SOL    HW2 2284   0.254   2.173   0.818
  754SOL     OW 2285   1.194   3.474   0.031
  754SOL    HW1 2286   1.200   3.381   0.068
  754SOL    HW2 2287   1.135   3.474  -0.049
  755SOL     OW 2288   0.822   2.864   1.372
  755SOL    HW1 2289   0.862   2.863   1.280
  755SOL    HW2 2290   0.832   2.956   1.412
  756SOL     OW 2291   0.916   2.772   0.291
  756SOL    HW1 2292   0.979   2.810   0.223
  756SOL    HW2 2293   0.956   2.689   0.330
  757SOL     OW 2294   1.504   3.469   0.044
  757SOL    HW1 2295   1.412   3.506   0.051
  757SOL    HW2 2296   1.542   3.489  -0.046
  758SOL     OW 2297   0.372   3.150   1.490
  758SOL    HW1 2298   0.359   3.243   1.456
  758SOL    HW2 2299   0.288   3.098   1.477
  759SOL     OW 2300   1.614   3.154   1.289
  759SOL    HW1 2301   1.674   3.157   1.369
  759SOL    HW2 2302   1.539   3.218   1.302
  760SOL     OW 2303   1.039   2.960   0.696
  760SOL    HW1 2304   0.969   2.913   0.750
  760SOL    HW2 2305   1.098   2.892   0.653
  761SOL     OW 2306   1.014   2.098   0.971
  761SOL    HW1 2307   1.006   2.062   0.878
  761SOL    HW2 2308   1.012   2.022   1.036
  762SOL     OW 2309   0.590   3.349   0.491
  762SOL    HW1 2310   0.632   3.291   0.421
  762SOL    HW2 2311   0.546   3.428   0.447
  763SOL     OW 2312   1.709   2.247   1.381
  763SOL    HW1 2313   1.782   2.316   1.385
  763SOL    HW2 2314   1.737   2.172   1.322
  764SOL     OW 2315   0.255   3.210   0.290
  764SOL    HW1 2316   0.159   3.211   0.263
  764SOL    HW2 2317   0.267   3.263   0.374
  765SOL     OW 2318   0.105   2.875   1.726
  765SOL    HW1 2319   0.028   2.842   1.780
  765SOL    HW2 2320   0.190   2.845   1.768
  766SOL     OW 2321   0.672   2.065   1.489
  766SOL    HW1 2322   0.762   2.049   1.449
  766SOL    HW2 2323   0.680   2.070   1.588
  767SOL     OW 2324   0.075   2.207   0.033
  767SOL    HW1 2325  -0.017   2.179   0.004
  767SOL    HW2 2326   0.106   2.284  -0.023
  768SOL     OW 2327   1.440   2.718   1.398
  768SOL    HW1 2328   1.383   2.770   1.335
  768SOL    HW2 2329   1.536   2.730   1.374
  769SOL     OW 2330   0.072   2.028   0.318
  769SOL    HW1 2331   0.055   2.111   0.264
  769SOL    HW2 2332   0.162   1.991   0.296
  770SOL     OW 2333   1.183   3.197   0.119
  770SOL    HW1 2334   1.084   3.186   0.121
  770SOL    HW2 2335   1.217   3.212   0.212
  771SOL     OW 2336   0.613   2.704   1.431
  771SOL    HW1 2337   0.669   2.785   1.414
  771SOL    HW2 2338   0.672   2.624   1.434
  772SOL     OW 2339   1.493   3.629   0.959
  772SOL    HW1 2340   1.526   3.693   0.890
  772SOL    HW2 2341   1.559   3.623   1.034
  773SOL     OW 2342   0.716   2.427   1.708
  773SOL    HW1 2343   0.735   2.492   1.782
  773SOL    HW2 2344   0.776   2.347   1.717
  774SOL     OW 2345   1.450   3.082   1.633
  774SOL    HW1 2346   1.441   3.072   1.732
  774SOL    HW2 2347   1.546   3.075   1.607
  775SOL     OW 2348   0.390   3.603   1.560
  775SOL    HW1 2349   0.299   3.644   1.558
  775SOL    HW2 2350   0.383   3.509   1.592
  776SOL     OW 2351   1.674   2.745   1.254
  776SOL    HW1 2352   1.647   2.656   1.217
  776SOL    HW2 2353   1.675   2.813   1.181
  777SOL     OW 2354   1.225   2.187   0.449
  777SOL    HW1 2355   1.290   2.113   0.438
  777SOL    HW2 2356   1.245   2.237   0.533
  778SOL     OW 2357   0.594   2.607   0.652
  778SOL    HW1 2358   0.644   2.692   0.633
  778SOL    HW2 2359   0.506   2.609   0.604
  779SOL     OW 2360   1.777   2.204   1.642
  779SOL    HW1 2361   1.760   2.235   1.548
  779SOL    HW2 2362   1.693   2.167   1.680
  780SOL     OW 2363   1.730   2.796   1.517
  780SOL    HW1 2364   1.768   2.887   1.532
  780SOL    HW2 2365   1.722   2.779   1.418
  781SOL     OW 2366   0.859   3.236   0.016
  781SOL    HW1 2367   0.813   3.251   0.104
  781SOL    HW2 2368   0.903   3.321  -0.014
  782SOL     OW 2369   0.661   3.652   0.953
  782SOL    HW1 2370   0.615   3.740   0.940
  782SOL    HW2 2371   0.760   3.664   0.946
  783SOL     OW 2372   0.859   2.818   0.861
  783SOL    HW1 2373   0.913   2.749   0.909
  783SOL    HW2 2374   0.827   2.887   0.927
  784SOL     OW 2375   1.083   2.846   0.087
  784SOL    HW1 2376   1.060   2.899   0.005
  784SOL    HW2 2377   1.164   2.790   0.068
  785SOL     OW 2378   1.861   3.431   0.851
  785SOL    HW1 2379   1.790   3.419   0.781
  785SOL    HW2 2380   1.862   3.352   0.911
  786SOL     OW 2381   0.221   3.176   1.844
  786SOL    HW1 2382   0.156   3.103   1.823
  786SOL    HW2 2383   0.225   3.190   1.942
  787SOL     OW 2384   0.079   3.102   0.653
  787SOL    HW1 2385   0.078   3.055   0.741
  787SOL    HW2 2386   0.161   3.074   0.602
  788SOL     OW 2387   0.672   3.253   1.624
  788SOL    HW1 2388   0.594   3.203   1.662
  788SOL    HW2 2389   0.669   3.348   1.655
  789SOL     OW 2390   1.824   2.054   1.227
  789SOL    HW1 2391   1.820   1.964   1.271
  789SOL    HW2 2392   1.827   2.043   1.128
  790SOL     OW 2393   0.428   2.286   0.520
  790SOL    HW1 2394   0.458   2.214   0.458
  790SOL    HW2 2395   0.389   2.246   0.603
  791SOL     OW 2396   1.705   3.349   1.104
  791SOL    HW1 2397   1.612   3.324   1.077
  791SOL    HW2 2398   1.731   3.299   1.186
  792SOL     OW 2399   0.317   2.409   1.280
  792SOL    HW1 2400   0.355   2.350   1.352
  792SOL    HW2 2401   0.357   2.383   1.192
  793SOL     OW 2402   0.812   3.448   0.687
  793SOL    HW1 2403   0.844   3.458   0.593
  793SOL    HW2 2404   0.733   3.386   0.689
  794SOL     OW 2405   1.424   2.076   1.112
  794SOL    HW1 2406   1.476   2.011   1.167
  794SOL    HW2 2407   1.375   2.139   1.173
  795SOL     OW 2408   1.001   1.896   1.154
  795SOL    HW1 2409   0.938   1.824   1.123
  795SOL    HW2 2410   1.094   1.860   1.154
  796SOL     OW 2411   0.770   3.192   0.301
  796SOL    HW1 2412   0.724   3.105   0.318
  796SOL    HW2 2413   0.861   3.189   0.342
  797SOL     OW 2414   0.618   3.429   1.284
  797SOL    HW1 2415   0.613   3.511   1.341
  797SOL    HW2 2416   0.707   3.426   1.239
  798SOL     OW 2417   1.352   1.914   0.168
  798SOL    HW1 2418   1.387   1.873   0.084
  798SOL    HW2 2419   1.262   1.876   0.188
  799SOL     OW 2420   1.300   2.315   0.691
  799SOL    HW1 2421   1.241   2.395   0.695
  799SOL    HW2 2422   1.315   2.280   0.784
  800SOL     OW 2423   1.593   2.083   0.882
  800SOL    HW1 2424   1.509   2.082   0.936
  800SOL    HW2 2425   1.595   2.166   0.826
  801SOL     OW 2426   0.039   2.939   0.300
  801SOL    HW1 2427   0.138   2.928   0.291
  801SOL    HW2 2428  -0.001   2.853   0.332
  802SOL     OW 2429   0.875   3.508   0.337
  802SOL    HW1 2430   0.798   3.473   0.283
  802SOL    HW2 2431   0.843   3.579   0.399
  803SOL     OW 2432   0.230   2.490   1.975
  803SOL    HW1 2433   0.137   2.488   2.012
  803SOL    HW2 2434   0.231   2.451   1.883
  804SOL     OW 2435   0.225   2.137   2.858
  804SOL    HW1 2436   0.260   2.120   2.950
  804SOL    HW2 2437   0.137   2.092   2.846
  805SOL     OW 2438   0.019   2.230   2.509
  805SOL    HW1 2439  -0.063   2.273   2.548
  805SOL    HW2 2440  -0.009   2.157   2.446
  806SOL     OW 2441   0.569   3.137   3.027
  806SOL    HW1 2442   0.476   3.130   2.990
  806SOL    HW2 2443   0.580   3.226   3.071
  807SOL     OW 2444   1.555   3.373   2.565
  807SOL    HW1 2445   1.498   3.357   2.646
  807SOL    HW2 2446   1.496   3.383   2.485
  808SOL     OW 2447   1.135   2.565   2.579
  808SOL    HW1 2448   1.192   2.643   2.554
  808SOL    HW2 2449   1.075   2.591   2.655
  809SOL     OW 2450   1.755   2.469   2.093
  809SOL    HW1 2451   1.743   2.456   1.994
  809SOL    HW2 2452   1.725   2.388   2.142
  810SOL     OW 2453   0.768   3.006   2.885
  810SOL    HW1 2454   0.690   3.023   2.945
  810SOL    HW2 2455   0.802   3.093   2.849
  811SOL     OW 2456   0.850   2.660   3.685
  811SOL    HW1 2457   0.846   2.736   3.750
  811SOL    HW2 2458   0.872   2.696   3.594
  812SOL     OW 2459   0.685   2.874   2.527
  812SOL    HW1 2460   0.754   2.858   2.597
  812SOL    HW2 2461   0.612   2.931   2.565
  813SOL     OW 2462   0.686   3.023   3.665
  813SOL    HW1 2463   0.746   3.102   3.679
  813SOL    HW2 2464   0.600   3.054   3.624
  814SOL     OW 2465   0.335   3.297   2.923
  814SOL    HW1 2466   0.257   3.266   2.870
  814SOL    HW2 2467   0.393   3.355   2.866
  815SOL     OW 2468   1.460   3.367   3.201
  815SOL    HW1 2469   1.484   3.461   3.227
  815SOL    HW2 2470   1.444   3.313   3.283
  816SOL     OW 2471   0.438   2.254   3.361
  816SOL    HW1 2472   0.520   2.198   3.370
  816SOL    HW2 2473   0.357   2.196   3.365
  817SOL     OW 2474   1.603   2.309   2.599
  817SOL    HW1 2475   1.529   2.355   2.549
  817SOL    HW2 2476   1.654   2.377   2.652
  818SOL     OW 2477   0.231   3.575   2.345
  818SOL    HW1 2478   0.265   3.652   2.399
  818SOL    HW2 2479   0.275   3.575   2.255
  819SOL     OW 2480   1.127   3.203   3.552
  819SOL    HW1 2481   1.174   3.203   3.640
  819SOL    HW2 2482   1.079   3.116   3.541
  820SOL     OW 2483   0.230   3.296   2.400
  820SOL    HW1 2484   0.204   3.392   2.400
  820SOL    HW2 2485   0.159   3.242   2.445
  821SOL     OW 2486   0.240   2.953   2.748
  821SOL    HW1 2487   0.254   2.869   2.800
  821SOL    HW2 2488   0.185   3.017   2.803
  822SOL     OW 2489   0.620   3.648   3.301
  822SOL    HW1 2490   0.528   3.631   3.336
  822SOL    HW2 2491   0.648   3.740   3.327
  823SOL     OW 2492   0.606   2.826   1.985
  823SOL    HW1 2493   0.613   2.910   1.931
  823SOL    HW2 2494   0.652   2.839   2.073
  824SOL     OW 2495   1.594   1.976   3.342
  824SOL    HW1 2496   1.576   2.043   3.270
  824SOL    HW2 2497   1.591   2.022   3.431
  825SOL     OW 2498   0.122   2.505   2.425
  825SOL    HW1 2499   0.077   2.417   2.442
  825SOL    HW2 2500   0.121   2.559   2.509
  826SOL     OW 2501   1.842   3.629   2.221
  826SOL    HW1 2502   1.896   3.600   2.301
  826SOL    HW2 2503   1.872   3.719   2.192
  827SOL     OW 2504   0.027   3.458   1.979
  827SOL    HW1 2505   0.008   3.362   2.000
  827SOL    HW2 2506  -0.006   3.516   2.054
  828SOL     OW 2507   1.689   2.784   2.474
  828SOL    HW1 2508   1.784   2.755   2.482
  828SOL    HW2 2509   1.681   2.849   2.399
  829SOL     OW 2510   1.641   2.970   2.294
  829SOL    HW1 2511   1.727   2.972   2.242
  829SOL    HW2 2512   1.655   3.017   2.382
  830SOL     OW 2513   0.113   2.599   3.459
  830SOL    HW1 2514   0.201   2.586   3.504
  830SOL    HW2 2515   0.100   2.696   3.437
  831SOL     OW 2516   0.613   3.227   2.588
  831SOL    HW1 2517   0.564   3.140   2.597
  831SOL    HW2 2518   0.590   3.270   2.501
  832SOL     OW 2519   1.293   3.090   3.285
  832SOL    HW1 2520   1.330   3.017   3.227
  832SOL    HW2 2521   1.345   3.095   3.370
  833SOL     OW 2522   0.809   1.866   2.364
  833SOL    HW1 2523   0.849   1.957   2.355
  833SOL    HW2 2524   0.709   1.874   2.370
  834SOL     OW 2525   0.197   2.838   3.126
  834SOL    HW1 2526   0.286   2.793   3.112
  834SOL    HW2 2527   0.124   2.773   3.107
  835SOL     OW 2528   1.525   2.861   2.052
  835SOL    HW1 2529   1.462   2.785   2.065
  835SOL    HW2 2530   1.573   2.879   2.138
  836SOL     OW 2531   1.187   3.654   3.478
  836SOL    HW1 2532   1.211   3.714   3.402
  836SOL    HW2 2533   1.194   3.559   3.448
  837SOL     OW 2534   0.317   2.113   3.663
  837SOL    HW1 2535   0.388   2.184   3.669
  837SOL    HW2 2536   0.229   2.152   3.691
  838SOL     OW 2537   1.466   3.279   2.815
  838SOL    HW1 2538   1.407   3.285   2.895
  838SOL    HW2 2539   1.451   3.191   2.769
  839SOL     OW 2540   1.667   3.576   2.434
  839SOL    HW1 2541   1.626   3.553   2.346
  839SOL    HW2 2542   1.649   3.502   2.499
  840SOL     OW 2543   0.598   2.591   2.132
  840SOL    HW1 2544   0.622   2.660   2.064
  840SOL    HW2 2545   0.520   2.624   2.186
  841SOL     OW 2546   1.281   2.207   2.806
  841SOL    HW1 2547   1.195   2.157   2.793
  841SOL    HW2 2548   1.343   2.153   2.862
  842SOL     OW 2549   1.576   3.524   2.169
  842SOL    HW1 2550   1.665   3.570   2.172
  842SOL    HW2 2551   1.555   3.500   2.074
  843SOL     OW 2552   0.807   2.467   3.327
  843SOL    HW1 2553   0.760   2.464   3.416
  843SOL    HW2 2554   0.756   2.412   3.261
  844SOL     OW 2555   1.394   2.331   3.536
  844SOL    HW1 2556   1.374   2.374   3.624
  844SOL    HW2 2557   1.472   2.269   3.545
  845SOL     OW 2558   0.973   2.752   3.434
  845SOL    HW1 2559   1.019   2.668   3.405
  845SOL    HW2 2560   0.917   2.786   3.359
  846SOL     OW 2561   0.991   2.272   3.104
  846SOL    HW1 2562   0.914   2.306   3.158
  846SOL    HW2 2563   0.957   2.221   3.025
  847SOL     OW 2564   1.041   2.563   2.291
  847SOL    HW1 2565   1.067   2.559   2.387
  847SOL    HW2 2566   0.956   2.512   2.277
  848SOL     OW 2567   0.076   2.673   2.651
  848SOL    HW1 2568   0.175   2.661   2.660
  848SOL    HW2 2569   0.052   2.768   2.672
  849SOL     OW 2570   0.130   3.683   3.433
  849SOL    HW1 2571   0.120   3.668   3.532
  849SOL    HW2 2572   0.044   3.719   3.397
  850SOL     OW 2573   0.865   2.210   2.057
  850SOL    HW1 2574   0.924   2.273   2.008
  850SOL    HW2 2575   0.884   2.116   2.028
  851SOL     OW 2576   1.719   2.447   3.693
  851SOL    HW1 2577   1.693   2.536   3.657
  851SOL    HW2 2578   1.717   2.379   3.620
  852SOL     OW 2579   1.362   3.006   2.407
  852SOL    HW1 2580   1.445   2.977   2.359
  852SOL    HW2 2581   1.313   3.073   2.351
  853SOL     OW 2582   0.550   2.058   2.747
  853SOL    HW1 2583   0.545   2.053   2.847
  853SOL    HW2 2584   0.552   2.154   2.718
  854SOL     OW 2585   1.008   3.318   2.339
  854SOL    HW1 2586   0.962   3.390   2.287
  854SOL    HW2 2587   1.004   3.338   2.437
  855SOL     OW 2588   0.351   3.663   2.715
  855SOL    HW1 2589   0.401   3.577   2.721
  855SOL    HW2 2590   0.416   3.740   2.712
  856SOL     OW 2591   1.795   2.928   2.735
  856SOL    HW1 2592   1.733   2.913   2.659
  856SOL    HW2 2593   1.743   2.939   2.820
  857SOL     OW 2594   1.227   3.412   3.368
  857SOL    HW1 2595   1.233   3.335   3.432
  857SOL    HW2 2596   1.175   3.386   3.288
  858SOL     OW 2597   0.321   2.805   2.104
  858SOL    HW1 2598   0.403   2.844   2.062
  858SOL    HW2 2599   0.294   2.723   2.055
  859SOL     OW 2600   1.458   2.597   2.590
  859SOL    HW1 2601   1.453   2.532   2.665
  859SOL    HW2 2602   1.538   2.656   2.603
  860SOL     OW 2603   0.461   3.128   3.589
  860SOL    HW1 2604   0.411   3.129   3.503
  860SOL    HW2 2605   0.398   3.110   3.665
  861SOL     OW 2606   1.111   3.638   2.099
  861SOL    HW1 2607   1.051   3.576   2.149
  861SOL    HW2 2608   1.142   3.594   2.014
  862SOL     OW 2609   0.202   2.147   3.360
  862SOL    HW1 2610   0.122   2.207   3.347
  862SOL    HW2 2611   0.192   2.098   3.446
  863SOL     OW 2612   1.632   3.239   1.943
  863SOL    HW1 2613   1.600   3.333   1.933
  863SOL    HW2 2614   1.556   3.176   1.931
  864SOL     OW 2615   0.464   3.605   2.185
  864SOL    HW1 2616   0.497   3.644   2.271
  864SOL    HW2 2617   0.540   3.598   2.120
  865SOL     OW 2618   1.400   1.969   2.288
  865SOL    HW1 2619   1.376   1.932   2.198
  865SOL    HW2 2620   1.499   1.985   2.292
  866SOL     OW 2621   0.249   3.647   3.103
  866SOL    HW1 2622   0.306   3.582   3.153
  866SOL    HW2 2623   0.233   3.614   3.010
  867SOL     OW 2624   0.940   3.560   2.766
  867SOL    HW1 2625   1.020   3.503   2.787
  867SOL    HW2 2626   0.891   3.520   2.689
  868SOL     OW 2627   0.382   2.562   2.342
  868SOL    HW1 2628   0.427   2.472   2.339
  868SOL    HW2 2629   0.288   2.551   2.375
  869SOL     OW 2630   1.547   2.084   3.591
  869SOL    HW1 2631   1.542   2.121   3.683
  869SOL    HW2 2632   1.475   2.015   3.579
  870SOL     OW 2633   0.614   1.984   1.979
  870SOL    HW1 2634   0.712   1.962   1.986
  870SOL    HW2 2635   0.583   1.967   1.886
  871SOL     OW 2636   0.781   2.126   3.611
  871SOL    HW1 2637   0.848   2.065   3.654
  871SOL    HW2 2638   0.708   2.145   3.676
  872SOL     OW 2639   0.888   3.376   3.057
  872SOL    HW1 2640   0.865   3.351   2.963
  872SOL    HW2 2641   0.949   3.307   3.096
  873SOL     OW 2642   1.351   2.452   3.295
  873SOL    HW1 2643   1.379   2.409   3.380
  873SOL    HW2 2644   1.376   2.548   3.296
  874SOL     OW 2645   0.803   3.264   2.786
  874SOL    HW1 2646   0.893   3.278   2.744
  874SOL    HW2 2647   0.732   3.266   2.715
  875SOL     OW 2648   0.922   2.365   2.761
  875SOL    HW1 2649   0.897   2.356   2.665
  875SOL    HW2 2650   0.970   2.283   2.792
  876SOL     OW 2651   0.539   1.926   2.374
  876SOL    HW1 2652   0.458   1.927   2.432
  876SOL    HW2 2653   0.542   2.009   2.319
  877SOL     OW 2654   1.434   3.050   1.903
  877SOL    HW1 2655   1.466   2.974   1.960
  877SOL    HW2 2656   1.342   3.077   1.933
  878SOL     OW 2657   0.297   1.897   2.033
  878SOL    HW1 2658   0.346   1.981   2.012
  878SOL    HW2 2659   0.359   1.832   2.078
  879SOL     OW 2660   0.935   2.098   2.342
  879SOL    HW1 2661   0.887   2.139   2.264
  879SOL    HW2 2662   1.034   2.096   2.323
  880SOL     OW 2663   1.076   2.545   3.326
  880SOL    HW1 2664   0.996   2.484   3.329
  880SOL    HW2 2665   1.157   2.492   3.302
  881SOL     OW 2666   1.227   3.432   2.655
  881SOL    HW1 2667   1.248   3.506   2.590
  881SOL    HW2 2668   1.295   3.432   2.728
  882SOL     OW 2669   0.459   3.014   2.603
  882SOL    HW1 2670   0.388   2.987   2.668
  882SOL    HW2 2671   0.433   2.986   2.510
  883SOL     OW 2672   1.271   3.659   2.453
  883SOL    HW1 2673   1.315   3.723   2.389
  883SOL    HW2 2674   1.221   3.711   2.523
  884SOL     OW 2675   1.032   2.411   1.878
  884SOL    HW1 2676   0.991   2.493   1.839
  884SOL    HW2 2677   1.096   2.437   1.951
  885SOL     OW 2678   0.078   2.418   3.248
  885SOL    HW1 2679   0.170   2.417   3.207
  885SOL    HW2 2680   0.072   2.492   3.315
  886SOL     OW 2681   0.561   2.084   3.009
  886SOL    HW1 2682   0.599   2.000   3.046
  886SOL    HW2 2683   0.473   2.103   3.053
  887SOL     OW 2684   0.866   2.316   2.504
  887SOL    HW1 2685   0.834   2.388   2.442
  887SOL    HW2 2686   0.890   2.235   2.451
  888SOL     OW 2687   1.017   1.901   2.615
  888SOL    HW1 2688   0.945   1.906   2.546
  888SOL    HW2 2689   0.993   1.832   2.684
  889SOL     OW 2690   1.429   3.035   2.729
  889SOL    HW1 2691   1.374   2.951   2.722
  889SOL    HW2 2692   1.455   3.064   2.637
  890SOL     OW 2693   1.466   2.452   2.854
  890SOL    HW1 2694   1.436   2.357   2.861
  890SOL    HW2 2695   1.539   2.468   2.920
  891SOL     OW 2696   1.857   2.695   2.239
  891SOL    HW1 2697   1.899   2.631   2.303
  891SOL    HW2 2698   1.819   2.644   2.161
  892SOL     OW 2699   0.488   3.247   2.036
  892SOL    HW1 2700   0.401   3.232   2.083
  892SOL    HW2 2701   0.471   3.273   1.941
  893SOL     OW 2702   1.664   3.142   2.519
  893SOL    HW1 2703   1.763   3.150   2.533
  893SOL    HW2 2704   1.619   3.226   2.550
  894SOL     OW 2705   1.390   2.437   1.940
  894SOL    HW1 2706   1.336   2.416   2.021
  894SOL    HW2 2707   1.481   2.396   1.949
  895SOL     OW 2708   0.527   2.118   2.190
  895SOL    HW1 2709   0.554   2.059   2.115
  895SOL    HW2 2710   0.527   2.213   2.159
  896SOL     OW 2711   1.754   3.085   3.450
  896SOL    HW1 2712   1.845   3.046   3.437
  896SOL    HW2 2713   1.762   3.181   3.474
  897SOL     OW 2714   1.064   3.209   3.202
  897SOL    HW1 2715   0.984   3.186   3.257
  897SOL    HW2 2716   1.147   3.183   3.251
  898SOL     OW 2717   1.592   3.491   3.487
  898SOL    HW1 2718   1.619   3.525   3.397
  898SOL    HW2 2719   1.671   3.453   3.533
  899SOL     OW 2720   1.111   3.057   2.962
  899SOL    HW1 2721   1.071   3.101   3.043
  899SOL    HW2 2722   1.070   3.094   2.879
  900SOL     OW 2723   1.638   2.961   2.941
  900SOL    HW1 2724   1.643   3.042   3.000
  900SOL    HW2 2725   1.552   2.963   2.890
  901SOL     OW 2726   0.915   1.951   3.264
  901SOL    HW1 2727   0.940   1.931   3.169
  901SOL    HW2 2728   0.987   2.007   3.306
  902SOL     OW 2729   0.980   2.978   3.581
  902SOL    HW1 2730   0.881   2.984   3.591
  902SOL    HW2 2731   1.003   2.898   3.525
  903SOL     OW 2732   0.705   2.912   2.230
  903SOL    HW1 2733   0.691   2.919   2.329
  903SOL    HW2 2734   0.789   2.861   2.212
  904SOL     OW 2735   0.410   2.675   3.113
  904SOL    HW1 2736   0.496   2.687   3.163
  904SOL    HW2 2737   0.368   2.588   3.140
  905SOL     OW 2738   1.274   2.248   3.124
  905SOL    HW1 2739   1.295   2.322   3.188
  905SOL    HW2 2740   1.185   2.265   3.081
  906SOL     OW 2741   0.064   3.426   3.193
  906SOL    HW1 2742   0.018   3.508   3.159
  906SOL    HW2 2743   0.162   3.445   3.202
  907SOL     OW 2744   0.367   2.962   2.363
  907SOL    HW1 2745   0.360   3.045   2.307
  907SOL    HW2 2746   0.371   2.882   2.303
  908SOL     OW 2747   0.566   2.399   2.727
  908SOL    HW1 2748   0.578   2.465   2.653
  908SOL    HW2 2749   0.612   2.433   2.810
  909SOL     OW 2750   1.252   3.210   2.250
  909SOL    HW1 2751   1.302   3.287   2.290
  909SOL    HW2 2752   1.157   3.212   2.282
  910SOL     OW 2753   1.272   3.307   3.004
  910SOL    HW1 2754   1.319   3.320   3.091
  910SOL    HW2 2755   1.206   3.233   3.013
  911SOL     OW 2756   1.582   2.501   2.334
  911SOL    HW1 2757   1.551   2.562   2.407
  911SOL    HW2 2758   1.632   2.553   2.265
  912SOL     OW 2759   0.354   3.372   3.191
  912SOL    HW1 2760   0.333   3.328   3.104
  912SOL    HW2 2761   0.451   3.398   3.194
  913SOL     OW 2762   0.402   2.613   3.460
  913SOL    HW1 2763   0.470   2.668   3.413
  913SOL    HW2 2764   0.442   2.525   3.487
  914SOL     OW 2765   1.587   2.641   3.532
  914SOL    HW1 2766   1.495   2.679   3.527
  914SOL    HW2 2767   1.647   2.688   3.467
  915SOL     OW 2768   1.013   1.967   3.632
  915SOL    HW1 2769   1.019   2.052   3.580
  915SOL    HW2 2770   1.045   1.891   3.575
  916SOL     OW 2771   0.504   1.912   3.602
  916SOL    HW1 2772   0.462   1.855   3.532
  916SOL    HW2 2773   0.438   1.981   3.634
  917SOL     OW 2774   0.573   2.732   2.891
  917SOL    HW1 2775   0.617   2.821   2.882
  917SOL    HW2 2776   0.510   2.732   2.968
  918SOL     OW 2777   1.360   2.724   2.907
  918SOL    HW1 2778   1.285   2.724   2.841
  918SOL    HW2 2779   1.397   2.632   2.916
  919SOL     OW 2780   1.209   2.387   2.137
  919SOL    HW1 2781   1.222   2.303   2.191
  919SOL    HW2 2782   1.180   2.461   2.197
  920SOL     OW 2783   0.307   2.075   3.093
  920SOL    HW1 2784   0.284   2.112   3.183
  920SOL    HW2 2785   0.277   1.980   3.087
  921SOL     OW 2786   0.037   3.172   3.144
  921SOL    HW1 2787   0.090   3.123   3.212
  921SOL    HW2 2788   0.059   3.270   3.149
  922SOL     OW 2789   0.732   2.496   2.926
  922SOL    HW1 2790   0.791   2.470   2.850
  922SOL    HW2 2791   0.704   2.592   2.915
  923SOL     OW 2792   1.728   2.797   3.716
  923SOL    HW1 2793   1.682   2.790   3.627
  923SOL    HW2 2794   1.666   2.841   3.782
  924SOL     OW 2795   0.307   1.925   2.480
  924SOL    HW1 2796   0.296   2.019   2.513
  924SOL    HW2 2797   0.302   1.862   2.557
  925SOL     OW 2798   1.622   2.229   2.236
  925SOL    HW1 2799   1.624   2.153   2.300
  925SOL    HW2 2800   1.574   2.306   2.276
  926SOL     OW 2801   1.023   2.628   2.828
  926SOL    HW1 2802   1.038   2.649   2.924
  926SOL    HW2 2803   0.993   2.533   2.819
  927SOL     OW 2804   0.980   3.435   3.562
  927SOL    HW1 2805   0.960   3.479   3.474
  927SOL    HW2 2806   1.019   3.344   3.546
  928SOL     OW 2807   1.859   3.380   3.467
  928SOL    HW1 2808   1.873   3.407   3.372
  928SOL    HW2 2809   1.942   3.402   3.520
  929SOL     OW 2810   0.350   2.760   3.666
  929SOL    HW1 2811   0.426   2.804   3.714
  929SOL    HW2 2812   0.385   2.713   3.584
  930SOL     OW 2813   1.540   2.136   1.987
  930SOL    HW1 2814   1.479   2.061   2.010
  930SOL    HW2 2815   1.562   2.188   2.070
  931SOL     OW 2816   1.303   2.700   1.904
  931SOL    HW1 2817   1.337   2.607   1.919
  931SOL    HW2 2818   1.321   2.727   1.809
  932SOL     OW 2819   1.068   3.195   2.711
  932SOL    HW1 2820   1.075   3.111   2.656
  932SOL    HW2 2821   1.130   3.264   2.675
  933SOL     OW 2822   0.319   2.672   2.811
  933SOL    HW1 2823   0.412   2.708   2.816
  933SOL    HW2 2824   0.313   2.587   2.863
  934SOL     OW 2825   0.339   2.371   2.868
  934SOL    HW1 2826   0.287   2.288   2.851
  934SOL    HW2 2827   0.416   2.376   2.804
  935SOL     OW 2828   1.138   2.242   3.540
  935SOL    HW1 2829   1.093   2.305   3.604
  935SOL    HW2 2830   1.231   2.273   3.523
  936SOL     OW 2831   1.160   2.069   3.339
  936SOL    HW1 2832   1.160   2.133   3.416
  936SOL    HW2 2833   1.188   2.117   3.256
  937SOL     OW 2834   0.008   3.188   2.062
  937SOL    HW1 2835  -0.085   3.209   2.031
  937SOL    HW2 2836   0.018   3.089   2.075
  938SOL     OW 2837   0.088   3.663   2.789
  938SOL    HW1 2838   0.046   3.577   2.762
  938SOL    HW2 2839   0.182   3.666   2.755
  939SOL     OW 2840   0.504   3.430   2.772
  939SOL    HW1 2841   0.570   3.504   2.781
  939SOL    HW2 2842   0.548   3.351   2.730
  940SOL     OW 2843   1.002   2.658   3.100
  940SOL    HW1 2844   1.043   2.626   3.186
  940SOL    HW2 2845   0.906   2.631   3.097
  941SOL     OW 2846   0.040   2.406   2.976
  941SOL    HW1 2847   0.125   2.373   2.935
  941SOL    HW2 2848   0.053   2.421   3.074
  942SOL     OW 2849   0.189   2.382   3.584
  942SOL    HW1 2850   0.248   2.342   3.514
  942SOL    HW2 2851   0.131   2.453   3.543
  943SOL     OW 2852   1.369   2.812   3.522
  943SOL    HW1 2853   1.408   2.901   3.542
  943SOL    HW2 2854   1.379   2.792   3.425
  944SOL     OW 2855   0.815   2.434   2.187
  944SOL    HW1 2856   0.822   2.345   2.141
  944SOL    HW2 2857   0.721   2.468   2.179
  945SOL     OW 2858   1.657   2.466   3.068
  945SOL    HW1 2859   1.619   2.397   3.130
  945SOL    HW2 2860   1.739   2.430   3.024
  946SOL     OW 2861   0.252   3.426   3.606
  946SOL    HW1 2862   0.222   3.483   3.682
  946SOL    HW2 2863   0.245   3.329   3.632
  947SOL     OW 2864   0.671   2.326   3.131
  947SOL    HW1 2865   0.637   2.237   3.101
  947SOL    HW2 2866   0.697   2.380   3.051
  948SOL     OW 2867   0.930   3.540   3.327
  948SOL    HW1 2868   0.906   3.522   3.232
  948SOL    HW2 2869   0.960   3.634   3.337
  949SOL     OW 2870   0.473   2.362   2.053
  949SOL    HW1 2871   0.534   2.442   2.057
  949SOL    HW2 2872   0.378   2.393   2.060
  950SOL     OW 2873   0.159   2.999   3.328
  950SOL    HW1 2874   0.181   2.938   3.404
  950SOL    HW2 2875   0.169   2.950   3.242
  951SOL     OW 2876   1.347   2.921   3.096
  951SOL    HW1 2877   1.371   2.858   3.022
  951SOL    HW2 2878   1.257   2.961   3.078
  952SOL     OW 2879   1.302   2.717   2.171
  952SOL    HW1 2880   1.216   2.686   2.213
  952SOL    HW2 2881   1.298   2.703   2.072
  953SOL     OW 2882   1.759   3.609   3.016
  953SOL    HW1 2883   1.820   3.639   2.943
  953SOL    HW2 2884   1.721   3.520   2.994
  954SOL     OW 2885   1.252   3.593   2.990
  954SOL    HW1 2886   1.336   3.598   2.936
  954SOL    HW2 2887   1.229   3.497   3.008
  955SOL     OW 2888   0.083   3.120   2.884
  955SOL    HW1 2889   0.078   3.119   2.984
  955SOL    HW2 2890   0.000   3.079   2.846
  956SOL     OW 2891   0.688   3.524   3.578
  956SOL    HW1 2892   0.632   3.605   3.587
  956SOL    HW2 2893   0.740   3.528   3.492
  957SOL     OW 2894   1.726   1.997   2.385
  957SOL    HW1 2895   1.799   1.980   2.318
  957SOL    HW2 2896   1.695   1.910   2.423
  958SOL     OW 2897   1.388   3.435   2.339
  958SOL    HW1 2898   1.455   3.447   2.265
  958SOL    HW2 2899   1.348   3.524   2.362
  959SOL     OW 2900   0.130   3.656   3.713
  959SOL    HW1 2901   0.089   3.582   3.766
  959SOL    HW2 2902   0.194   3.707   3.771
  960SOL     OW 2903   1.280   2.789   2.534
  960SOL    HW1 2904   1.340   2.708   2.536
  960SOL    HW2 2905   1.320   2.858   2.474
  961SOL     OW 2906   0.830   3.135   3.284
  961SOL    HW1 2907   0.825   3.168   3.379
  961SOL    HW2 2908   0.744   3.154   3.238
  962SOL     OW 2909   0.672   3.478   2.016
  962SOL    HW1 2910   0.681   3.488   1.917
  962SOL    HW2 2911   0.632   3.389   2.037
  963SOL     OW 2912   1.650   3.582   3.256
  963SOL    HW1 2913   1.703   3.592   3.172
  963SOL    HW2 2914   1.623   3.672   3.290
  964SOL     OW 2915   1.841   2.037   2.825
  964SOL    HW1 2916   1.880   1.952   2.789
  964SOL    HW2 2917   1.743   2.039   2.806
  965SOL     OW 2918   0.263   2.188   2.582
  965SOL    HW1 2919   0.184   2.239   2.548
  965SOL    HW2 2920   0.254   2.173   2.680
  966SOL     OW 2921   1.194   3.474   1.893
  966SOL    HW1 2922   1.200   3.381   1.930
  966SOL    HW2 2923   1.135   3.474   1.813
  967SOL     OW 2924   0.822   2.864   3.234
  967SOL    HW1 2925   0.862   2.863   3.142
  967SOL    HW2 2926   0.832   2.956   3.274
  968SOL     OW 2927   0.916   2.772   2.153
  968SOL    HW1 2928   0.979   2.810   2.085
  968SOL    HW2 2929   0.956   2.689   2.192
  969SOL     OW 2930   1.504   3.469   1.906
  969SOL    HW1 2931   1.412   3.506   1.913
  969SOL    HW2 2932   1.542   3.489   1.816
  970SOL     OW 2933   0.372   3.150   3.352
  970SOL    HW1 2934   0.359   3.243   3.318
  970SOL    HW2 2935   0.288   3.098   3.339
  971SOL     OW 2936   1.614   3.154   3.151
  971SOL    HW1 2937   1.674   3.157   3.231
  971SOL    HW2 2938   1.539   3.218   3.164
  972SOL     OW 2939   1.039   2.960   2.558
  972SOL    HW1 2940   0.969   2.913   2.612
  972SOL    HW2 2941   1.098   2.892   2.515
  973SOL     OW 2942   1.014   2.098   2.833
  973SOL    HW1 2943   1.006   2.062   2.740
  973SOL    HW2 2944   1.012   2.022   2.898
  974SOL     OW 2945   0.590   3.349   2.353
  974SOL    HW1 2946   0.632   3.291   2.283
  974SOL    HW2 2947   0.546   3.428   2.309
  975SOL     OW 2948   1.709   2.247   3.243
  975SOL    HW1 2949   1.782   2.316   3.247
  975SOL    HW2 2950   1.737   2.172   3.184
  976SOL     OW 2951   0.255   3.210   2.152
  976SOL    HW1 2952   0.159   3.211   2.125
  976SOL    HW2 2953   0.267   3.263   2.236
  977SOL     OW 2954   0.105   2.875   3.588
  977SOL    HW1 2955   0.028   2.842   3.642
  977SOL    HW2 2956   0.190   2.845   3.630
  978SOL     OW 2957   0.672   2.065   3.351
  978SOL    HW1 2958   0.762   2.049   3.311
  978SOL    HW2 2959   0.680   2.070   3.450
  979SOL     OW 2960   0.075   2.207   1.895
  979SOL    HW1 2961  -0.017   2.179   1.866
  979SOL    HW2 2962   0.106   2.284   1.839
  980SOL     OW 2963   1.440   2.718   3.260
  980SOL    HW1 2964   1.383   2.770   3.197
  980SOL    HW2 2965   1.536   2.730   3.236
  981SOL     OW 2966   0.072   2.028   2.180
  981SOL    HW1 2967   0.055   2.111   2.126
  981SOL    HW2 2968   0.162   1.991   2.158
  982SOL     OW 2969   1.183   3.197   1.981
  982SOL    HW1 2970   1.084   3.186   1.983
  982SOL    HW2 2971   1.217   3.212   2.074
  983SOL     OW 2972   0.613   2.704   3.293
  983SOL    HW1 2973   0.669   2.785   3.276
  983SOL    HW2 2974   0.672   2.624   3.296
  984SOL     OW 2975   1.493   3.629   2.821
  984SOL    HW1 2976   1.526   3.693   2.752
  984SOL    HW2 2977   1.559   3.623   2.896
  985SOL     OW 2978   0.716   2.427   3.570
  985SOL    HW1 2979   0.735   2.492   3.644
  985SOL    HW2 2980   0.776   2.347   3.579
  986SOL     OW 2981   1.450   3.082   3.495
  986SOL    HW1 2982   1.441   3.072   3.594
  986SOL    HW2 2983   1.546   3.075   3.469
  987SOL     OW 2984   0.390   3.603   3.422
  987SOL    HW1 2985   0.299   3.644   3.420
  987SOL    HW2 2986   0.383   3.509   3.454
  988SOL     OW 2987   1.674   2.745   3.116
  988SOL    HW1 2988   1.647   2.656   3.079
  988SOL    HW2 2989   1.675   2.813   3.043
  989SOL     OW 2990   1.225   2.187   2.311
  989SOL    HW1 2991   1.290   2.113   2.300
  989SOL    HW2 2992   1.245   2.237   2.395
  990SOL     OW 2993   0.594   2.607   2.514
  990SOL    HW1 2994   0.644   2.692   2.495
  990SOL    HW2 2995   0.506   2.609   2.466
  991SOL     OW 2996   1.777   2.204   3.504
  991SOL    HW1 2997   1.760   2.235   3.410
  991SOL    HW2 2998   1.693   2.167   3.542
  992SOL     OW 2999   1.730   2.796   3.379
  992SOL    HW1 3000   1.768   2.887   3.394
  992SOL    HW2 3001   1.722   2.779   3.280
  993SOL     OW 3002   0.859   3.236   1.878
  993SOL    HW1 3003   0.813   3.251   1.966
  993SOL    HW2 3004   0.903   3.321   1.848
  994SOL     OW 3005   0.661   3.652   2.815
  994SOL    HW1 3006   0.615   3.740   2.802
  994SOL    HW2 3007   0.760   3.664   2.808
  995SOL     OW 3008   0.859   2.818   2.723
  995SOL    HW1 3009   0.913   2.749   2.771
  995SOL    HW2 3010   0.827   2.887   2.789
  996SOL     OW 3011   1.083   2.846   1.949
  996SOL    HW1 3012   1.060   2.899   1.867
  996SOL    HW2 3013   1.164   2.790   1.930
  997SOL     OW 3014   1.861   3.431   2.713
  997SOL    HW1 3015   1.790   3.419   2.643
  997SOL    HW2 3016   1.862   3.352   2.773
  998SOL     OW 3017   0.221   3.176   3.706
  998SOL    HW1 3018   0.156   3.103   3.685
  998SOL    HW2 3019   0.225   3.190   3.804
  999SOL     OW 3020   0.079   3.102   2.515
  999SOL    HW1 3021   0.078   3.055   2.603
  999SOL    HW2 3022   0.161   3.074   2.464
 1000SOL     OW 3023   0.672   3.253   3.486
 1000SOL    HW1 3024   0.594   3.203   3.524
 1000SOL    HW2 3025   0.669   3.348   3.517
 1001SOL     OW 3026   1.824   2.054   3.089
 1001SOL    HW1 3027   1.820   1.964   3.133
 1001SOL    HW2 3028   1.827   2.043   2.990
 1002SOL     OW 3029   0.428   2.286   2.382
 1002SOL    HW1 3030   0.458   2.214   2.320
 1002SOL    HW2 3031   0.389   2.246   2.465
 1003SOL     OW 3032   1.705   3.349   2.966
 1003SOL    HW1 3033   1.612   3.324   2.939
 1003SOL    HW2 3034   1.731   3.299   3.048
 1004SOL     OW 3035   0.317   2.409   3.142
 1004SOL    HW1 3036   0.355   2.350   3.214
 1004SOL    HW2 3037   0.357   2.383   3.054
 1005SOL     OW 3038   0.812   3.448   2.549
 1005SOL    HW1 3039   0.844   3.458   2.455
 1005SOL    HW2 3040   0.733   3.386   2.551
 1006SOL     OW 3041   1.424   2.076   2.974
 1006SOL    HW1 3042   1.476   2.011   3.029
 1006SOL    HW2 3043   1.375   2.139   3.035
 1007SOL     OW 3044   1.001   1.896   3.016
 1007SOL    HW1 3045   0.938   1.824   2.985
 1007SOL    HW2 3046   1.094   1.860   3.016
 1008SOL     OW 3047   0.770   3.192   2.163
 1008SOL    HW1 3048   0.724   3.105   2.180
 1008SOL    HW2 3049   0.861   3.189   2.204
 1009SOL     OW 3050   0.618   3.429   3.146
 1009SOL    HW1 3051   0.613   3.511   3.203
 1009SOL    HW2 3052   0.707   3.426   3.101
 1010SOL     OW 3053   1.352   1.914   2.030
 1010SOL    HW1 3054   1.387   1.873   1.946
 1010SOL    HW2 3055   1.262   1.876   2.050
 1011SOL     OW 3056   1.300   2.315   2.553
 1011SOL    HW1 3057   1.241   2.395   2.557
 1011SOL    HW2 3058   1.315   2.280   2.646
 1012SOL     OW 3059   1.593   2.083   2.744
 1012SOL    HW1 3060   1.509   2.082   2.798
 1012SOL    HW2 3061   1.595   2.166   2.688
 1013SOL     OW 3062   0.039   2.939   2.162
 1013SOL    HW1 3063   0.138   2.928   2.153
 1013SOL    HW2 3064  -0.001   2.853   2.194
 1014SOL     OW 3065   0.875   3.508   2.199
 1014SOL    HW1 3066   0.798   3.473   2.145
 1014SOL    HW2 3067   0.843   3.579   2.261
 1015SOL     OW 3068   0.230   2.490   3.837
 1015SOL    HW1 3069   0.137   2.488   3.874
 1015SOL    HW2 3070   0.231   2.451   3.745
 1016SOL     OW 3071   0.225   2.137   4.720
 1016SOL    HW1 3072   0.260   2.120   4.812
 1016SOL    HW2 3073   0.137   2.092   4.708
 1017SOL     OW 3074   0.019   2.230   4.371
 1017SOL    HW1 3075  -0.063   2.273   4.410
 1017SOL    HW2 3076  -0.009   2.157   4.308
 1018SOL     OW 3077   0.569   3.137   4.889
 1018SOL    HW1 3078   0.476   3.130   4.852
 1018SOL    HW2 3079   0.580   3.226   4.933
 1019SOL     OW 3080   1.555   3.373   4.427
 1019SOL    HW1 3081   1.498   3.357   4.508
 1019SOL    HW2 3082   1.496   3.383   4.347
 1020SOL     OW 3083   1.135   2.565   4.441
 1020SOL    HW1 3084   1.192   2.643   4.416
 1020SOL    HW2 3085   1.075   2.591   4.517
 1021SOL     OW 3086   1.755   2.469   3.955
 1021SOL    HW1 3087   1.743   2.456   3.856
 1021SOL    HW2 3088   1.725   2.388   4.004
 1022SOL     OW 3089   0.768   3.006   4.747
 1022SOL    HW1 3090   0.690   3.023   4.807
 1022SOL    HW2 3091   0.802   3.093   4.711
 1023SOL     OW 3092   0.685   2.874   4.389
 1023SOL    HW1 3093   0.754   2.858   4.459
 1023SOL    HW2 3094   0.612   2.931   4.427
 1024SOL     OW 3095   0.335   3.297   4.785
 1024SOL    HW1 3096   0.257   3.266   4.732
 1024SOL    HW2 3097   0.393   3.355   4.728
 1025SOL     OW 3098   0.438   2.254   5.223
 1025SOL    HW1 3099   0.520   2.198   5.232
 1025SOL    HW2 3100   0.357   2.196   5.227
 1026SOL     OW 3101   1.603   2.309   4.461
 1026SOL    HW1 3102   1.529   2.355   4.411
 1026SOL    HW2 3103   1.654   2.377   4.514
 1027SOL     OW 3104   0.231   3.575   4.207
 1027SOL    HW1 3105   0.265   3.652   4.261
 1027SOL    HW2 3106   0.275   3.575   4.117
 1028SOL     OW 3107   0.230   3.296   4.262
 1028SOL    HW1 3108   0.204   3.392   4.262
 1028SOL    HW2 3109   0.159   3.242   4.307
 1029SOL     OW 3110   0.240   2.953   4.610
 1029SOL    HW1 3111   0.254   2.869   4.662
 1029SOL    HW2 3112   0.185   3.017   4.665
 1030SOL     OW 3113   0.620   3.648   5.163
 1030SOL    HW1 3114   0.528   3.631   5.198
 1030SOL    HW2 3115   0.648   3.740   5.189
 1031SOL     OW 3116   0.606   2.826   3.847
 1031SOL    HW1 3117   0.613   2.910   3.793
 1031SOL    HW2 3118   0.652   2.839   3.935
 1032SOL     OW 3119   0.122   2.505   4.287
 1032SOL    HW1 3120   0.077   2.417   4.304
 1032SOL    HW2 3121   0.121   2.559   4.371
 1033SOL     OW 3122   1.842   3.629   4.083
 1033SOL    HW1 3123   1.896   3.600   4.163
 1033SOL    HW2 3124   1.872   3.719   4.054
 1034SOL     OW 3125   0.027   3.458   3.841
 1034SOL    HW1 3126   0.008   3.362   3.862
 1034SOL    HW2 3127  -0.006   3.516   3.916
 1035SOL     OW 3128   1.689   2.784   4.336
 1035SOL    HW1 3129   1.784   2.755   4.344
 1035SOL    HW2 3130   1.681   2.849   4.261
 1036SOL     OW 3131   1.641   2.970   4.156
 1036SOL    HW1 3132   1.727   2.972   4.104
 1036SOL    HW2 3133   1.655   3.017   4.244
 1037SOL     OW 3134   0.613   3.227   4.450
 1037SOL    HW1 3135   0.564   3.140   4.459
 1037SOL    HW2 3136   0.590   3.270   4.363
 1038SOL     OW 3137   0.809   1.866   4.226
 1038SOL    HW1 3138   0.849   1.957   4.217
 1038SOL    HW2 3139   0.709   1.874   4.232
 1039SOL     OW 3140   0.197   2.838   4.988
 1039SOL    HW1 3141   0.286   2.793   4.974
 1039SOL    HW2 3142   0.124   2.773   4.969
 1040SOL     OW 3143   1.525   2.861   3.914
 1040SOL    HW1 3144   1.462   2.785   3.927
 1040SOL    HW2 3145   1.573   2.879   4.000
 1041SOL     OW 3146   1.466   3.279   4.677
 1041SOL    HW1 3147   1.407   3.285   4.757
 1041SOL    HW2 3148   1.451   3.191   4.631
 1042SOL     OW 3149   1.667   3.576   4.296
 1042SOL    HW1 3150   1.626   3.553   4.208
 1042SOL    HW2 3151   1.649   3.502   4.361
 1043SOL     OW 3152   0.598   2.591   3.994
 1043SOL    HW1 3153   0.622   2.660   3.926
 1043SOL    HW2 3154   0.520   2.624   4.048
 1044SOL     OW 3155   1.281   2.207   4.668
 1044SOL    HW1 3156   1.195   2.157   4.655
 1044SOL    HW2 3157   1.343   2.153   4.724
 1045SOL     OW 3158   1.576   3.524   4.031
 1045SOL    HW1 3159   1.665   3.570   4.034
 1045SOL    HW2 3160   1.555   3.500   3.936
 1046SOL     OW 3161   0.807   2.467   5.189
 1046SOL    HW1 3162   0.760   2.464   5.278
 1046SOL    HW2 3163   0.756   2.412   5.123
 1047SOL     OW 3164   0.991   2.272   4.966
 1047SOL    HW1 3165   0.914   2.306   5.020
 1047SOL    HW2 3166   0.957   2.221   4.887
 1048SOL     OW 3167   1.041   2.563   4.153
 1048SOL    HW1 3168   1.067   2.559   4.249
 1048SOL    HW2 3169   0.956   2.512   4.139
 1049SOL     OW 3170   0.076   2.673   4.513
 1049SOL    HW1 3171   0.175   2.661   4.522
 1049SOL    HW2 3172   0.052   2.768   4.534
 1050SOL     OW 3173   0.130   3.683   5.295
 1050SOL    HW1 3174   0.120   3.668   5.394
 1050SOL    HW2 3175   0.044   3.719   5.259
 1051SOL     OW 3176   0.865   2.210   3.919
 1051SOL    HW1 3177   0.924   2.273   3.870
 1051SOL    HW2 3178   0.884   2.116   3.890
 1052SOL     OW 3179   1.362   3.006   4.269
 1052SOL    HW1 3180   1.445   2.977   4.221
 1052SOL    HW2 3181   1.313   3.073   4.213
 1053SOL     OW 3182   0.550   2.058   4.609
 1053SOL    HW1 3183   0.545   2.053   4.709
 1053SOL    HW2 3184   0.552   2.154   4.580
 1054SOL     OW 3185   1.008   3.318   4.201
 1054SOL    HW1 3186   0.962   3.390   4.149
 1054SOL    HW2 3187   1.004   3.338   4.299
 1055SOL     OW 3188   0.351   3.663   4.577
 1055SOL    HW1 3189   0.401   3.577   4.583
 1055SOL    HW2 3190   0.416   3.740   4.574
 1056SOL     OW 3191   1.795   2.928   4.597
 1056SOL    HW1 3192   1.733   2.913   4.521
 1056SOL    HW2 3193   1.743   2.939   4.682
 1057SOL     OW 3194   0.321   2.805   3.966
 1057SOL    HW1 3195   0.403   2.844   3.924
 1057SOL    HW2 3196   0.294   2.723   3.917
 1058SOL     OW 3197   1.458   2.597   4.452
 1058SOL    HW1 3198   1.453   2.532   4.527
 1058SOL    HW2 3199   1.538   2.656   4.465
 1059SOL     OW 3200   1.111   3.638   3.961
 1059SOL    HW1 3201   1.051   3.576   4.011
 1059SOL    HW2 3202   1.142   3.594   3.876
 1060SOL     OW 3203   1.632   3.239   3.805
 1060SOL    HW1 3204   1.600   3.333   3.795
 1060SOL    HW2 3205   1.556   3.176   3.793
 1061SOL     OW 3206   0.464   3.605   4.047
 1061SOL    HW1 3207   0.497   3.644   4.133
 1061SOL    HW2 3208   0.540   3.598   3.982
 1062SOL     OW 3209   1.400   1.969   4.150
 1062SOL    HW1 3210   1.376   1.932   4.060
 1062SOL    HW2 3211   1.499   1.985   4.154
 1063SOL     OW 3212   0.249   3.647   4.965
 1063SOL    HW1 3213   0.306   3.582   5.015
 1063SOL    HW2 3214   0.233   3.614   4.872
 1064SOL     OW 3215   0.940   3.560   4.628
 1064SOL    HW1 3216   1.020   3.503   4.649
 1064SOL    HW2 3217   0.891   3.520   4.551
 1065SOL     OW 3218   0.382   2.562   4.204
 1065SOL    HW1 3219   0.427   2.472   4.201
 1065SOL    HW2 3220   0.288   2.551   4.237
 1066SOL     OW 3221   0.614   1.984   3.841
 1066SOL    HW1 3222   0.712   1.962   3.848
 1066SOL    HW2 3223   0.583   1.967   3.748
 1067SOL     OW 3224   0.888   3.376   4.919
 1067SOL    HW1 3225   0.865   3.351   4.825
 1067SOL    HW2 3226   0.949   3.307   4.958
 1068SOL     OW 3227   0.803   3.264   4.648
 1068SOL    HW1 3228   0.893   3.278   4.606
 1068SOL    HW2 3229   0.732   3.266   4.577
 1069SOL     OW 3230   0.922   2.365   4.623
 1069SOL    HW1 3231   0.897   2.356   4.527
 1069SOL    HW2 3232   0.970   2.283   4.654
 1070SOL     OW 3233   0.539   1.926   4.236
 1070SOL    HW1 3234   0.458   1.927   4.294
 1070SOL    HW2 3235   0.542   2.009   4.181
 1071SOL     OW 3236   1.434   3.050   3.765
 1071SOL    HW1 3237   1.466   2.974   3.822
 1071SOL    HW2 3238   1.342   3.077   3.795
 1072SOL     OW 3239   0.297   1.897   3.895
 1072SOL    HW1 3240   0.346   1.981   3.874
 1072SOL    HW2 3241   0.359   1.832   3.940
 1073SOL     OW 3242   0.935   2.098   4.204
 1073SOL    HW1 3243   0.887   2.139   4.126
 1073SOL    HW2 3244   1.034   2.096   4.185
 1074SOL     OW 3245   1.227   3.432   4.517
 1074SOL    HW1 3246   1.248   3.506   4.452
 1074SOL    HW2 3247   1.295   3.432   4.590
 1075SOL     OW 3248   0.459   3.014   4.465
 1075SOL    HW1 3249   0.388   2.987   4.530
 1075SOL    HW2 3250   0.433   2.986   4.372
 1076SOL     OW 3251   1.271   3.659   4.315
 1076SOL    HW1 3252   1.315   3.723   4.251
 1076SOL    HW2 3253   1.221   3.711   4.385
 1077SOL     OW 3254   1.032   2.411   3.740
 1077SOL    HW1 3255   0.991   2.493   3.701
 1077SOL    HW2 3256   1.096   2.437   3.813
 1078SOL     OW 3257   0.561   2.084   4.871
 1078SOL    HW1 3258   0.599   2.000   4.908
 1078SOL    HW2 3259   0.473   2.103   4.915
 1079SOL     OW 3260   0.866   2.316   4.366
 1079SOL    HW1 3261   0.834   2.388   4.304
 1079SOL    HW2 3262   0.890   2.235   4.313
 1080SOL     OW 3263   1.017   1.901   4.477
 1080SOL    HW1 3264   0.945   1.906   4.408
 1080SOL    HW2 3265   0.993   1.832   4.546
 1081SOL     OW 3266   1.429   3.035   4.591
 1081SOL    HW1 3267   1.374   2.951   4.584
 1081SOL    HW2 3268   1.455   3.064   4.499
 1082SOL     OW 3269   1.466   2.452   4.716
 1082SOL    HW1 3270   1.436   2.357   4.723
 1082SOL    HW2 3271   1.539   2.468   4.782
 1083SOL     OW 3272   1.857   2.695   4.101
 1083SOL    HW1 3273   1.899   2.631   4.165
 1083SOL    HW2 3274   1.819   2.644   4.023
 1084SOL     OW 3275   0.488   3.247   3.898
 1084SOL    HW1 3276   0.401   3.232   3.945
 1084SOL    HW2 3277   0.471   3.273   3.803
 1085SOL     OW 3278   1.664   3.142   4.381
 1085SOL    HW1 3279   1.763   3.150   4.395
 1085SOL    HW2 3280   1.619   3.226   4.412
 1086SOL     OW 3281   1.390   2.437   3.802
 1086SOL    HW1 3282   1.336   2.416   3.883
 1086SOL    HW2 3283   1.481   2.396   3.811
 1087SOL     OW 3284   0.527   2.118   4.052
 1087SOL    HW1 3285   0.554   2.059   3.977
 1087SOL    HW2 3286   0.527   2.213   4.021
 1088SOL     OW 3287   1.754   3.085   5.312
 1088SOL    HW1 3288   1.845   3.046   5.299
 1088SOL    HW2 3289   1.762   3.181   5.336
 1089SOL     OW 3290   1.064   3.209   5.064
 1089SOL    HW1 3291   0.984   3.186   5.119
 1089SOL    HW2 3292   1.147   3.183   5.113
 1090SOL     OW 3293   1.111   3.057   4.824
 1090SOL    HW1 3294   1.071   3.101   4.905
 1090SOL    HW2 3295   1.070   3.094   4.741
 1091SOL     OW 3296   1.638   2.961   4.803
 1091SOL    HW1 3297   1.643   3.042   4.862
 1091SOL    HW2 3298   1.552   2.963   4.752
 1092SOL     OW 3299   0.705   2.912   4.092
 1092SOL    HW1 3300   0.691   2.919   4.191
 1092SOL    HW2 3301   0.789   2.861   4.074
 1093SOL     OW 3302   0.410   2.675   4.975
 1093SOL    HW1 3303   0.496   2.687   5.025
 1093SOL    HW2 3304   0.368   2.588   5.002
 1094SOL     OW 3305   1.274   2.248   4.986
 1094SOL    HW1 3306   1.295   2.322   5.050
 1094SOL    HW2 3307   1.185   2.265   4.943
 1095SOL     OW 3308   0.064   3.426   5.055
 1095SOL    HW1 3309   0.018   3.508   5.021
 1095SOL    HW2 3310   0.162   3.445   5.064
 1096SOL     OW 3311   0.367   2.962   4.225
 1096SOL    HW1 3312   0.360   3.045   4.169
 1096SOL    HW2 3313   0.371   2.882   4.165
 1097SOL     OW 3314   0.566   2.399   4.589
 1097SOL    HW1 3315   0.578   2.465   4.515
 1097SOL    HW2 3316   0.612   2.433   4.672
 1098SOL     OW 3317   1.252   3.210   4.112
 1098SOL    HW1 3318   1.302   3.287   4.152
 1098SOL    HW2 3319   1.157   3.212   4.144
 1099SOL     OW 3320   1.272   3.307   4.866
 1099SOL    HW1 3321   1.319   3.320   4.953
 1099SOL    HW2 3322   1.206   3.233   4.875
 1100SOL     OW 3323   1.582   2.501   4.196
 1100SOL    HW1 3324   1.551   2.562   4.269
 1100SOL    HW2 3325   1.632   2.553   4.127
 1101SOL     OW 3326   0.354   3.372   5.053
 1101SOL    HW1 3327   0.333   3.328   4.966
 1101SOL    HW2 3328   0.451   3.398   5.056
 1102SOL     OW 3329   0.504   1.912   5.464
 1102SOL    HW1 3330   0.462   1.855   5.394
 1102SOL    HW2 3331   0.438   1.981   5.496
 1103SOL     OW 3332   0.573   2.732   4.753
 1103SOL    HW1 3333   0.617   2.821   4.744
 1103SOL    HW2 3334   0.510   2.732   4.830
 1104SOL     OW 3335   1.360   2.724   4.769
 1104SOL    HW1 3336   1.285   2.724   4.703
 1104SOL    HW2 3337   1.397   2.632   4.778
 1105SOL     OW 3338   1.209   2.387   3.999
 1105SOL    HW1 3339   1.222   2.303   4.053
 1105SOL    HW2 3340   1.180   2.461   4.059
 1106SOL     OW 3341   0.307   2.075   4.955
 1106SOL    HW1 3342   0.284   2.112   5.045
 1106SOL    HW2 3343   0.277   1.980   4.949
 1107SOL     OW 3344   0.037   3.172   5.006
 1107SOL    HW1 3345   0.090   3.123   5.074
 1107SOL    HW2 3346   0.059   3.270   5.011
 1108SOL     OW 3347   0.732   2.496   4.788
 1108SOL    HW1 3348   0.791   2.470   4.712
 1108SOL    HW2 3349   0.704   2.592   4.777
 1109SOL     OW 3350   0.307   1.925   4.342
 1109SOL    HW1 3351   0.296   2.019   4.375
 1109SOL    HW2 3352   0.302   1.862   4.419
 1110SOL     OW 3353   1.622   2.229   4.098
 1110SOL    HW1 3354   1.624   2.153   4.162
 1110SOL    HW2 3355   1.574   2.306   4.138
 1111SOL     OW 3356   1.023   2.628   4.690
 1111SOL    HW1 3357   1.038   2.649   4.786
 1111SOL    HW2 3358   0.993   2.533   4.681
 1112SOL     OW 3359   1.540   2.136   3.849
 1112SOL    HW1 3360   1.479   2.061   3.872
 1112SOL    HW2 3361   1.562   2.188   3.932
 1113SOL     OW 3362   1.303   2.700   3.766
 1113SOL    HW1 3363   1.337   2.607   3.781
 1113SOL    HW2 3364   1.321   2.727   3.671
 1114SOL     OW 3365   1.068   3.195   4.573
 1114SOL    HW1 3366   1.075   3.111   4.518
 1114SOL    HW2 3367   1.130   3.264   4.537
 1115SOL     OW 3368   0.319   2.672   4.673
 1115SOL    HW1 3369   0.412   2.708   4.678
 1115SOL    HW2 3370   0.313   2.587   4.725
 1116SOL     OW 3371   0.339   2.371   4.730
 1116SOL    HW1 3372   0.287   2.288   4.713
 1116SOL    HW2 3373   0.416   2.376   4.666
 1117SOL     OW 3374   1.160   2.069   5.201
 1117SOL    HW1 3375   1.160   2.133   5.278
 1117SOL    HW2 3376   1.188   2.117   5.118
 1118SOL     OW 3377   0.008   3.188   3.924
 1118SOL    HW1 3378  -0.085   3.209   3.893
 1118SOL    HW2 3379   0.018   3.089   3.937
 1119SOL     OW 3380   0.088   3.663   4.651
 1119SOL    HW1 3381   0.046   3.577   4.624
 1119SOL    HW2 3382   0.182   3.666   4.617
 1120SOL     OW 3383   0.504   3.430   4.634
 1120SOL    HW1 3384   0.570   3.504   4.643
 1120SOL    HW2 3385   0.548   3.351   4.592
 1121SOL     OW 3386   1.002   2.658   4.962
 1121SOL    HW1 3387   1.043   2.626   5.048
 1121SOL    HW2 3388   0.906   2.631   4.959
 1122SOL     OW 3389   0.040   2.406   4.838
 1122SOL    HW1 3390   0.125   2.373   4.797
 1122SOL    HW2 3391   0.053   2.421   4.936
 1123SOL     OW 3392   0.815   2.434   4.049
 1123SOL    HW1 3393   0.822   2.345   4.003
 1123SOL    HW2 3394   0.721   2.468   4.041
 1124SOL     OW 3395   1.657   2.466   4.930
 1124SOL    HW1 3396   1.619   2.397   4.992
 1124SOL    HW2 3397   1.739   2.430   4.886
 1125SOL     OW 3398   0.671   2.326   4.993
 1125SOL    HW1 3399   0.637   2.237   4.963
 1125SOL    HW2 3400   0.697   2.380   4.913
 1126SOL     OW 3401   0.930   3.540   5.189
 1126SOL    HW1 3402   0.906   3.522   5.094
 1126SOL    HW2 3403   0.960   3.634   5.199
 1127SOL     OW 3404   0.473   2.362   3.915
 1127SOL    HW1 3405   0.534   2.442   3.919
 1127SOL    HW2 3406   0.378   2.393   3.922
 1128SOL     OW 3407   0.159   2.999   5.190
 1128SOL    HW1 3408   0.181   2.938   5.266
 1128SOL    HW2 3409   0.169   2.950   5.104
 1129SOL     OW 3410   1.347   2.921   4.958
 1129SOL    HW1 3411   1.371   2.858   4.884
 1129SOL    HW2 3412   1.257   2.961   4.940
 1130SOL     OW 3413   1.302   2.717   4.033
 1130SOL    HW1 3414   1.216   2.686   4.075
 1130SOL    HW2 3415   1.298   2.703   3.934
 1131SOL     OW 3416   1.759   3.609   4.878
 1131SOL    HW1 3417   1.820   3.639   4.805
 1131SOL    HW2 3418   1.721   3.520   4.856
 1132SOL     OW 3419   1.252   3.593   4.852
 1132SOL    HW1 3420   1.336   3.598   4.798
 1132SOL    HW2 3421   1.229   3.497   4.870
 1133SOL     OW 3422   0.083   3.120   4.746
 1133SOL    HW1 3423   0.078   3.119   4.846
 1133SOL    HW2 3424   0.000   3.079   4.708
 1134SOL     OW 3425   1.726   1.997   4.247
 1134SOL    HW1 3426   1.799   1.980   4.180
 1134SOL    HW2 3427   1.695   1.910   4.285
 1135SOL     OW 3428   1.388   3.435   4.201
 1135SOL    HW1 3429   1.455   3.447   4.127
 1135SOL    HW2 3430   1.348   3.524   4.224
 1136SOL     OW 3431   1.280   2.789   4.396
 1136SOL    HW1 3432   1.340   2.708   4.398
 1136SOL    HW2 3433   1.320   2.858   4.336
 1137SOL     OW 3434   0.672   3.478   3.878
 1137SOL    HW1 3435   0.681   3.488   3.779
 1137SOL    HW2 3436   0.632   3.389   3.899
 1138SOL     OW 3437   1.841   2.037   4.687
 1138SOL    HW1 3438   1.880   1.952   4.651
 1138SOL    HW2 3439   1.743   2.039   4.668
 1139SOL     OW 3440   0.263   2.188   4.444
 1139SOL    HW1 3441   0.184   2.239   4.410
 1139SOL    HW2 3442   0.254   2.173   4.542
 1140SOL     OW 3443   1.194   3.474   3.755
 1140SOL    HW1 3444   1.200   3.381   3.792
 1140SOL    HW2 3445   1.135   3.474   3.675
 1141SOL     OW 3446   0.822   2.864   5.096
 1141SOL    HW1 3447   0.862   2.863   5.004
 1141SOL    HW2 3448   0.832   2.956   5.136
 1142SOL     OW 3449   0.916   2.772   4.015
 1142SOL    HW1 3450   0.979   2.810   3.947
 1142SOL    HW2 3451   0.956   2.689   4.054
 1143SOL     OW 3452   1.504   3.469   3.768
 1143SOL    HW1 3453   1.412   3.506   3.775
 1143SOL    HW2 3454   1.542   3.489   3.678
 1144SOL     OW 3455   0.372   3.150   5.214
 1144SOL    HW1 3456   0.359   3.243   5.180
 1144SOL    HW2 3457   0.288   3.098   5.201
 1145SOL     OW 3458   1.614   3.154   5.013
 1145SOL    HW1 3459   1.674   3.157   5.093
 1145SOL    HW2 3460   1.539   3.218   5.026
 1146SOL     OW 3461   1.039   2.960   4.420
 1146SOL    HW1 3462   0.969   2.913   4.474
 1146SOL    HW2 3463   1.098   2.892   4.377
 1147SOL     OW 3464   1.014   2.098   4.695
 1147SOL    HW1 3465   1.006   2.062   4.602
 1147SOL    HW2 3466   1.012   2.022   4.760
 1148SOL     OW 3467   0.590   3.349   4.215
 1148SOL    HW1 3468   0.632   3.291   4.145
 1148SOL    HW2 3469   0.546   3.428   4.171
 1149SOL     OW 3470   1.709   2.247   5.105
 1149SOL    HW1 3471   1.782   2.316   5.109
 1149SOL    HW2 3472   1.737   2.172   5.046
 1150SOL     OW 3473   0.255   3.210   4.014
 1150SOL    HW1 3474   0.159   3.211   3.987
 1150SOL    HW2 3475   0.267   3.263   4.098
 1151SOL     OW 3476   0.672   2.065   5.213
 1151SOL    HW1 3477   0.762   2.049   5.173
 1151SOL    HW2 3478   0.680   2.070   5.312
 1152SOL     OW 3479   0.075   2.207   3.757
 1152SOL    HW1 3480  -0.017   2.179   3.728
 1152SOL    HW2 3481   0.106   2.284   3.701
 1153SOL     OW 3482   0.072   2.028   4.042
 1153SOL    HW1 3483   0.055   2.111   3.988
 1153SOL    HW2 3484   0.162   1.991   4.020
 1154SOL     OW 3485   1.183   3.197   3.843
 1154SOL    HW1 3486   1.084   3.186   3.845
 1154SOL    HW2 3487   1.217   3.212   3.936
 1155SOL     OW 3488   0.613   2.704   5.155
 1155SOL    HW1 3489   0.669   2.785   5.138
 1155SOL    HW2 3490   0.672   2.624   5.158
 1156SOL     OW 3491   1.493   3.629   4.683
 1156SOL    HW1 3492   1.526   3.693   4.614
 1156SOL    HW2 3493   1.559   3.623   4.758
 1157SOL     OW 3494   0.390   3.603   5.284
 1157SOL    HW1 3495   0.299   3.644   5.282
 1157SOL    HW2 3496   0.383   3.509   5.316
 1158SOL     OW 3497   1.674   2.745   4.978
 1158SOL    HW1 3498   1.647   2.656   4.941
 1158SOL    HW2 3499   1.675   2.813   4.905
 1159SOL     OW 3500   1.225   2.187   4.173
 1159SOL    HW1 3501   1.290   2.113   4.162
 1159SOL    HW2 3502   1.245   2.237   4.257
 1160SOL     OW 3503   0.594   2.607   4.376
 1160SOL    HW1 3504   0.644   2.692   4.357
 1160SOL    HW2 3505   0.506   2.609   4.328
 1161SOL     OW 3506   1.730   2.796   5.241
 1161SOL    HW1 3507   1.768   2.887   5.256
 1161SOL    HW2 3508   1.722   2.779   5.142
 1162SOL     OW 3509   0.859   3.236   3.740
 1162SOL    HW1 3510   0.813   3.251   3.828
 1162SOL    HW2 3511   0.903   3.321   3.710
 1163SOL     OW 3512   0.661   3.652   4.677
 1163SOL    HW1 3513   0.615   3.740   4.664
 1163SOL    HW2 3514   0.760   3.664   4.670
 1164SOL     OW 3515   0.859   2.818   4.585
 1164SOL    HW1 3516   0.913   2.749   4.633
 1164SOL    HW2 3517   0.827   2.887   4.651
 1165SOL     OW 3518   1.083   2.846   3.811
 1165SOL    HW1 3519   1.060   2.899   3.729
 1165SOL    HW2 3520   1.164   2.790   3.792
 1166SOL     OW 3521   1.861   3.431   4.575
 1166SOL    HW1 3522   1.790   3.419   4.505
 1166SOL    HW2 3523   1.862   3.352   4.635
 1167SOL     OW 3524   0.079   3.102   4.377
 1167SOL    HW1 3525   0.078   3.055   4.465
 1167SOL    HW2 3526   0.161   3.074   4.326
 1168SOL     OW 3527   1.824   2.054   4.951
 1168SOL    HW1 3528   1.820   1.964   4.995
 1168SOL    HW2 3529   1.827   2.043   4.852
 1169SOL     OW 3530   0.428   2.286   4.244
 1169SOL    HW1 3531   0.458   2.214   4.182
 1169SOL    HW2 3532   0.389   2.246   4.327
 1170SOL     OW 3533   1.705   3.349   4.828
 1170SOL    HW1 3534   1.612   3.324   4.801
 1170SOL    HW2 3535   1.731   3.299   4.910
 1171SOL     OW 3536   0.317   2.409   5.004
 1171SOL    HW1 3537   0.355   2.350   5.076
 1171SOL    HW2 3538   0.357   2.383   4.916
 1172SOL     OW 3539   0.812   3.448   4.411
 1172SOL    HW1 3540   0.844   3.458   4.317
 1172SOL    HW2 3541   0.733   3.386   4.413
 1173SOL     OW 3542   1.424   2.076   4.836
 1173SOL    HW1 3543   1.476   2.011   4.891
 1173SOL    HW2 3544   1.375   2.139   4.897
 1174SOL     OW 3545   1.001   1.896   4.878
 1174SOL    HW1 3546   0.938   1.824   4.847
 1174SOL    HW2 3547   1.094   1.860   4.878
 1175SOL     OW 3548   0.770   3.192   4.025
 1175SOL    HW1 3549   0.724   3.105   4.042
 1175SOL    HW2 3550   0.861   3.189   4.066
 1176SOL     OW 3551   0.618   3.429   5.008
 1176SOL    HW1 3552   0.613   3.511   5.065
 1176SOL    HW2 3553   0.707   3.426   4.963
 1177SOL     OW 3554   1.352   1.914   3.892
 1177SOL    HW1 3555   1.387   1.873   3.808
 1177SOL    HW2 3556   1.262   1.876   3.912
 1178SOL     OW 3557   1.300   2.315   4.415
 1178SOL    HW1 3558   1.241   2.395   4.419
 1178SOL    HW2 3559   1.315   2.280   4.508
 1179SOL     OW 3560   1.593   2.083   4.606
 1179SOL    HW1 3561   1.509   2.082   4.660
 1179SOL    HW2 3562   1.595   2.166   4.550
 1180SOL     OW 3563   0.039   2.939   4.024
 1180SOL    HW1 3564   0.138   2.928   4.015
 1180SOL    HW2 3565  -0.001   2.853   4.056
 1181SOL     OW 3566   0.875   3.508   4.061
 1181SOL    HW1 3567   0.798   3.473   4.007
 1181SOL    HW2 3568   0.843   3.579   4.123
 1182SOL     OW 3569   0.230   4.352   0.113
 1182SOL    HW1 3570   0.137   4.350   0.150
 1182SOL    HW2 3571   0.231   4.313   0.021
 1183SOL     OW 3572   0.225   3.999   0.996
 1183SOL    HW1 3573   0.260   3.982   1.088
 1183SOL    HW2 3574   0.137   3.954   0.984
 1184SOL     OW 3575   0.019   4.092   0.647
 1184SOL    HW1 3576  -0.063   4.135   0.686
 1184SOL    HW2 3577  -0.009   4.019   0.584
 1185SOL     OW 3578   0.569   4.999   1.165
 1185SOL    HW1 3579   0.476   4.992   1.128
 1185SOL    HW2 3580   0.580   5.088   1.209
 1186SOL     OW 3581   1.555   5.235   0.703
 1186SOL    HW1 3582   1.498   5.219   0.784
 1186SOL    HW2 3583   1.496   5.245   0.623
 1187SOL     OW 3584   1.135   4.427   0.717
 1187SOL    HW1 3585   1.192   4.505   0.692
 1187SOL    HW2 3586   1.075   4.453   0.793
 1188SOL     OW 3587   1.755   4.331   0.231
 1188SOL    HW1 3588   1.743   4.318   0.132
 1188SOL    HW2 3589   1.725   4.250   0.280
 1189SOL     OW 3590   0.768   4.868   1.023
 1189SOL    HW1 3591   0.690   4.885   1.083
 1189SOL    HW2 3592   0.802   4.955   0.987
 1190SOL     OW 3593   0.850   4.522   1.823
 1190SOL    HW1 3594   0.846   4.598   1.888
 1190SOL    HW2 3595   0.872   4.558   1.732
 1191SOL     OW 3596   0.685   4.736   0.665
 1191SOL    HW1 3597   0.754   4.720   0.735
 1191SOL    HW2 3598   0.612   4.793   0.703
 1192SOL     OW 3599   0.686   4.885   1.803
 1192SOL    HW1 3600   0.746   4.964   1.817
 1192SOL    HW2 3601   0.600   4.916   1.762
 1193SOL     OW 3602   0.335   5.159   1.061
 1193SOL    HW1 3603   0.257   5.128   1.008
 1193SOL    HW2 3604   0.393   5.217   1.004
 1194SOL     OW 3605   0.438   4.116   1.499
 1194SOL    HW1 3606   0.520   4.060   1.508
 1194SOL    HW2 3607   0.357   4.058   1.503
 1195SOL     OW 3608   1.603   4.171   0.737
 1195SOL    HW1 3609   1.529   4.217   0.687
 1195SOL    HW2 3610   1.654   4.239   0.790
 1196SOL     OW 3611   0.231   5.437   0.483
 1196SOL    HW1 3612   0.265   5.514   0.537
 1196SOL    HW2 3613   0.275   5.437   0.393
 1197SOL     OW 3614   1.127   5.065   1.690
 1197SOL    HW1 3615   1.174   5.065   1.778
 1197SOL    HW2 3616   1.079   4.978   1.679
 1198SOL     OW 3617   0.240   4.815   0.886
 1198SOL    HW1 3618   0.254   4.731   0.938
 1198SOL    HW2 3619   0.185   4.879   0.941
 1199SOL     OW 3620   0.606   4.688   0.123
 1199SOL    HW1 3621   0.613   4.772   0.069
 1199SOL    HW2 3622   0.652   4.701   0.211
 1200SOL     OW 3623   1.594   3.838   1.480
 1200SOL    HW1 3624   1.576   3.905   1.408
 1200SOL    HW2 3625   1.591   3.884   1.569
 1201SOL     OW 3626   0.122   4.367   0.563
 1201SOL    HW1 3627   0.077   4.279   0.580
 1201SOL    HW2 3628   0.121   4.421   0.647
 1202SOL     OW 3629   1.689   4.646   0.612
 1202SOL    HW1 3630   1.784   4.617   0.620
 1202SOL    HW2 3631   1.681   4.711   0.537
 1203SOL     OW 3632   1.641   4.832   0.432
 1203SOL    HW1 3633   1.727   4.834   0.380
 1203SOL    HW2 3634   1.655   4.879   0.520
 1204SOL     OW 3635   0.113   4.461   1.597
 1204SOL    HW1 3636   0.201   4.448   1.642
 1204SOL    HW2 3637   0.100   4.558   1.575
 1205SOL     OW 3638   0.613   5.089   0.726
 1205SOL    HW1 3639   0.564   5.002   0.735
 1205SOL    HW2 3640   0.590   5.132   0.639
 1206SOL     OW 3641   1.293   4.952   1.423
 1206SOL    HW1 3642   1.330   4.879   1.365
 1206SOL    HW2 3643   1.345   4.957   1.508
 1207SOL     OW 3644   0.809   3.728   0.502
 1207SOL    HW1 3645   0.849   3.819   0.493
 1207SOL    HW2 3646   0.709   3.736   0.508
 1208SOL     OW 3647   0.197   4.700   1.264
 1208SOL    HW1 3648   0.286   4.655   1.250
 1208SOL    HW2 3649   0.124   4.635   1.245
 1209SOL     OW 3650   1.525   4.723   0.190
 1209SOL    HW1 3651   1.462   4.647   0.203
 1209SOL    HW2 3652   1.573   4.741   0.276
 1210SOL     OW 3653   0.317   3.975   1.801
 1210SOL    HW1 3654   0.388   4.046   1.807
 1210SOL    HW2 3655   0.229   4.014   1.829
 1211SOL     OW 3656   1.466   5.141   0.953
 1211SOL    HW1 3657   1.407   5.147   1.033
 1211SOL    HW2 3658   1.451   5.053   0.907
 1212SOL     OW 3659   0.598   4.453   0.270
 1212SOL    HW1 3660   0.622   4.522   0.202
 1212SOL    HW2 3661   0.520   4.486   0.324
 1213SOL     OW 3662   1.281   4.069   0.944
 1213SOL    HW1 3663   1.195   4.019   0.931
 1213SOL    HW2 3664   1.343   4.015   1.000
 1214SOL     OW 3665   0.807   4.329   1.465
 1214SOL    HW1 3666   0.760   4.326   1.554
 1214SOL    HW2 3667   0.756   4.274   1.399
 1215SOL     OW 3668   1.394   4.193   1.674
 1215SOL    HW1 3669   1.374   4.236   1.762
 1215SOL    HW2 3670   1.472   4.131   1.683
 1216SOL     OW 3671   0.973   4.614   1.572
 1216SOL    HW1 3672   1.019   4.530   1.543
 1216SOL    HW2 3673   0.917   4.648   1.497
 1217SOL     OW 3674   0.991   4.134   1.242
 1217SOL    HW1 3675   0.914   4.168   1.296
 1217SOL    HW2 3676   0.957   4.083   1.163
 1218SOL     OW 3677   1.041   4.425   0.429
 1218SOL    HW1 3678   1.067   4.421   0.525
 1218SOL    HW2 3679   0.956   4.374   0.415
 1219SOL     OW 3680   0.076   4.535   0.789
 1219SOL    HW1 3681   0.175   4.523   0.798
 1219SOL    HW2 3682   0.052   4.630   0.810
 1220SOL     OW 3683   0.865   4.072   0.195
 1220SOL    HW1 3684   0.924   4.135   0.146
 1220SOL    HW2 3685   0.884   3.978   0.166
 1221SOL     OW 3686   1.719   4.309   1.831
 1221SOL    HW1 3687   1.693   4.398   1.795
 1221SOL    HW2 3688   1.717   4.241   1.758
 1222SOL     OW 3689   1.362   4.868   0.545
 1222SOL    HW1 3690   1.445   4.839   0.497
 1222SOL    HW2 3691   1.313   4.935   0.489
 1223SOL     OW 3692   0.550   3.920   0.885
 1223SOL    HW1 3693   0.545   3.915   0.985
 1223SOL    HW2 3694   0.552   4.016   0.856
 1224SOL     OW 3695   1.795   4.790   0.873
 1224SOL    HW1 3696   1.733   4.775   0.797
 1224SOL    HW2 3697   1.743   4.801   0.958
 1225SOL     OW 3698   0.321   4.667   0.242
 1225SOL    HW1 3699   0.403   4.706   0.200
 1225SOL    HW2 3700   0.294   4.585   0.193
 1226SOL     OW 3701   1.458   4.459   0.728
 1226SOL    HW1 3702   1.453   4.394   0.803
 1226SOL    HW2 3703   1.538   4.518   0.741
 1227SOL     OW 3704   0.461   4.990   1.727
 1227SOL    HW1 3705   0.411   4.991   1.641
 1227SOL    HW2 3706   0.398   4.972   1.803
 1228SOL     OW 3707   0.202   4.009   1.498
 1228SOL    HW1 3708   0.122   4.069   1.485
 1228SOL    HW2 3709   0.192   3.960   1.584
 1229SOL     OW 3710   1.632   5.101   0.081
 1229SOL    HW1 3711   1.600   5.195   0.071
 1229SOL    HW2 3712   1.556   5.038   0.069
 1230SOL     OW 3713   1.400   3.831   0.426
 1230SOL    HW1 3714   1.376   3.794   0.336
 1230SOL    HW2 3715   1.499   3.847   0.430
 1231SOL     OW 3716   0.382   4.424   0.480
 1231SOL    HW1 3717   0.427   4.334   0.477
 1231SOL    HW2 3718   0.288   4.413   0.513
 1232SOL     OW 3719   1.547   3.946   1.729
 1232SOL    HW1 3720   1.542   3.983   1.821
 1232SOL    HW2 3721   1.475   3.877   1.717
 1233SOL     OW 3722   0.781   3.988   1.749
 1233SOL    HW1 3723   0.848   3.927   1.792
 1233SOL    HW2 3724   0.708   4.007   1.814
 1234SOL     OW 3725   1.351   4.314   1.433
 1234SOL    HW1 3726   1.379   4.271   1.518
 1234SOL    HW2 3727   1.376   4.410   1.434
 1235SOL     OW 3728   0.922   4.227   0.899
 1235SOL    HW1 3729   0.897   4.218   0.803
 1235SOL    HW2 3730   0.970   4.145   0.930
 1236SOL     OW 3731   0.539   3.788   0.512
 1236SOL    HW1 3732   0.458   3.789   0.570
 1236SOL    HW2 3733   0.542   3.871   0.457
 1237SOL     OW 3734   1.434   4.912   0.041
 1237SOL    HW1 3735   1.466   4.836   0.098
 1237SOL    HW2 3736   1.342   4.939   0.071
 1238SOL     OW 3737   0.935   3.960   0.480
 1238SOL    HW1 3738   0.887   4.001   0.402
 1238SOL    HW2 3739   1.034   3.958   0.461
 1239SOL     OW 3740   1.076   4.407   1.464
 1239SOL    HW1 3741   0.996   4.346   1.467
 1239SOL    HW2 3742   1.157   4.354   1.440
 1240SOL     OW 3743   1.227   5.294   0.793
 1240SOL    HW1 3744   1.248   5.368   0.728
 1240SOL    HW2 3745   1.295   5.294   0.866
 1241SOL     OW 3746   0.459   4.876   0.741
 1241SOL    HW1 3747   0.388   4.849   0.806
 1241SOL    HW2 3748   0.433   4.848   0.648
 1242SOL     OW 3749   1.032   4.273   0.016
 1242SOL    HW1 3750   0.991   4.355  -0.023
 1242SOL    HW2 3751   1.096   4.299   0.089
 1243SOL     OW 3752   0.078   4.280   1.386
 1243SOL    HW1 3753   0.170   4.279   1.345
 1243SOL    HW2 3754   0.072   4.354   1.453
 1244SOL     OW 3755   0.561   3.946   1.147
 1244SOL    HW1 3756   0.599   3.862   1.184
 1244SOL    HW2 3757   0.473   3.965   1.191
 1245SOL     OW 3758   0.866   4.178   0.642
 1245SOL    HW1 3759   0.834   4.250   0.580
 1245SOL    HW2 3760   0.890   4.097   0.589
 1246SOL     OW 3761   1.017   3.763   0.753
 1246SOL    HW1 3762   0.945   3.768   0.684
 1246SOL    HW2 3763   0.993   3.694   0.822
 1247SOL     OW 3764   1.429   4.897   0.867
 1247SOL    HW1 3765   1.374   4.813   0.860
 1247SOL    HW2 3766   1.455   4.926   0.775
 1248SOL     OW 3767   1.466   4.314   0.992
 1248SOL    HW1 3768   1.436   4.219   0.999
 1248SOL    HW2 3769   1.539   4.330   1.058
 1249SOL     OW 3770   1.857   4.557   0.377
 1249SOL    HW1 3771   1.899   4.493   0.441
 1249SOL    HW2 3772   1.819   4.506   0.299
 1250SOL     OW 3773   1.664   5.004   0.657
 1250SOL    HW1 3774   1.763   5.012   0.671
 1250SOL    HW2 3775   1.619   5.088   0.688
 1251SOL     OW 3776   1.390   4.299   0.078
 1251SOL    HW1 3777   1.336   4.278   0.159
 1251SOL    HW2 3778   1.481   4.258   0.087
 1252SOL     OW 3779   0.527   3.980   0.328
 1252SOL    HW1 3780   0.554   3.921   0.253
 1252SOL    HW2 3781   0.527   4.075   0.297
 1253SOL     OW 3782   1.754   4.947   1.588
 1253SOL    HW1 3783   1.845   4.908   1.575
 1253SOL    HW2 3784   1.762   5.043   1.612
 1254SOL     OW 3785   1.064   5.071   1.340
 1254SOL    HW1 3786   0.984   5.048   1.395
 1254SOL    HW2 3787   1.147   5.045   1.389
 1255SOL     OW 3788   1.111   4.919   1.100
 1255SOL    HW1 3789   1.071   4.963   1.181
 1255SOL    HW2 3790   1.070   4.956   1.017
 1256SOL     OW 3791   1.638   4.823   1.079
 1256SOL    HW1 3792   1.643   4.904   1.138
 1256SOL    HW2 3793   1.552   4.825   1.028
 1257SOL     OW 3794   0.915   3.813   1.402
 1257SOL    HW1 3795   0.940   3.793   1.307
 1257SOL    HW2 3796   0.987   3.869   1.444
 1258SOL     OW 3797   0.980   4.840   1.719
 1258SOL    HW1 3798   0.881   4.846   1.729
 1258SOL    HW2 3799   1.003   4.760   1.663
 1259SOL     OW 3800   0.705   4.774   0.368
 1259SOL    HW1 3801   0.691   4.781   0.467
 1259SOL    HW2 3802   0.789   4.723   0.350
 1260SOL     OW 3803   0.410   4.537   1.251
 1260SOL    HW1 3804   0.496   4.549   1.301
 1260SOL    HW2 3805   0.368   4.450   1.278
 1261SOL     OW 3806   1.274   4.110   1.262
 1261SOL    HW1 3807   1.295   4.184   1.326
 1261SOL    HW2 3808   1.185   4.127   1.219
 1262SOL     OW 3809   0.064   5.288   1.331
 1262SOL    HW1 3810   0.018   5.370   1.297
 1262SOL    HW2 3811   0.162   5.307   1.340
 1263SOL     OW 3812   0.367   4.824   0.501
 1263SOL    HW1 3813   0.360   4.907   0.445
 1263SOL    HW2 3814   0.371   4.744   0.441
 1264SOL     OW 3815   0.566   4.261   0.865
 1264SOL    HW1 3816   0.578   4.327   0.791
 1264SOL    HW2 3817   0.612   4.295   0.948
 1265SOL     OW 3818   1.252   5.072   0.388
 1265SOL    HW1 3819   1.302   5.149   0.428
 1265SOL    HW2 3820   1.157   5.074   0.420
 1266SOL     OW 3821   1.272   5.169   1.142
 1266SOL    HW1 3822   1.319   5.182   1.229
 1266SOL    HW2 3823   1.206   5.095   1.151
 1267SOL     OW 3824   1.582   4.363   0.472
 1267SOL    HW1 3825   1.551   4.424   0.545
 1267SOL    HW2 3826   1.632   4.415   0.403
 1268SOL     OW 3827   0.402   4.475   1.598
 1268SOL    HW1 3828   0.470   4.530   1.551
 1268SOL    HW2 3829   0.442   4.387   1.625
 1269SOL     OW 3830   1.587   4.503   1.670
 1269SOL    HW1 3831   1.495   4.541   1.665
 1269SOL    HW2 3832   1.647   4.550   1.605
 1270SOL     OW 3833   1.013   3.829   1.770
 1270SOL    HW1 3834   1.019   3.914   1.718
 1270SOL    HW2 3835   1.045   3.753   1.713
 1271SOL     OW 3836   0.504   3.774   1.740
 1271SOL    HW1 3837   0.462   3.717   1.670
 1271SOL    HW2 3838   0.438   3.843   1.772
 1272SOL     OW 3839   0.573   4.594   1.029
 1272SOL    HW1 3840   0.617   4.683   1.020
 1272SOL    HW2 3841   0.510   4.594   1.106
 1273SOL     OW 3842   1.360   4.586   1.045
 1273SOL    HW1 3843   1.285   4.586   0.979
 1273SOL    HW2 3844   1.397   4.494   1.054
 1274SOL     OW 3845   1.209   4.249   0.275
 1274SOL    HW1 3846   1.222   4.165   0.329
 1274SOL    HW2 3847   1.180   4.323   0.335
 1275SOL     OW 3848   0.307   3.937   1.231
 1275SOL    HW1 3849   0.284   3.974   1.321
 1275SOL    HW2 3850   0.277   3.842   1.225
 1276SOL     OW 3851   0.037   5.034   1.282
 1276SOL    HW1 3852   0.090   4.985   1.350
 1276SOL    HW2 3853   0.059   5.132   1.287
 1277SOL     OW 3854   0.732   4.358   1.064
 1277SOL    HW1 3855   0.791   4.332   0.988
 1277SOL    HW2 3856   0.704   4.454   1.053
 1278SOL     OW 3857   1.728   4.659   1.854
 1278SOL    HW1 3858   1.682   4.652   1.765
 1278SOL    HW2 3859   1.666   4.703   1.920
 1279SOL     OW 3860   0.307   3.787   0.618
 1279SOL    HW1 3861   0.296   3.881   0.651
 1279SOL    HW2 3862   0.302   3.724   0.695
 1280SOL     OW 3863   1.622   4.091   0.374
 1280SOL    HW1 3864   1.624   4.015   0.438
 1280SOL    HW2 3865   1.574   4.168   0.414
 1281SOL     OW 3866   1.023   4.490   0.966
 1281SOL    HW1 3867   1.038   4.511   1.062
 1281SOL    HW2 3868   0.993   4.395   0.957
 1282SOL     OW 3869   1.859   5.242   1.605
 1282SOL    HW1 3870   1.873   5.269   1.510
 1282SOL    HW2 3871   1.942   5.264   1.658
 1283SOL     OW 3872   0.350   4.622   1.804
 1283SOL    HW1 3873   0.426   4.666   1.852
 1283SOL    HW2 3874   0.385   4.575   1.722
 1284SOL     OW 3875   1.540   3.998   0.125
 1284SOL    HW1 3876   1.479   3.923   0.148
 1284SOL    HW2 3877   1.562   4.050   0.208
 1285SOL     OW 3878   1.303   4.562   0.042
 1285SOL    HW1 3879   1.337   4.469   0.057
 1285SOL    HW2 3880   1.321   4.589  -0.053
 1286SOL     OW 3881   0.319   4.534   0.949
 1286SOL    HW1 3882   0.412   4.570   0.954
 1286SOL    HW2 3883   0.313   4.449   1.001
 1287SOL     OW 3884   0.339   4.233   1.006
 1287SOL    HW1 3885   0.287   4.150   0.989
 1287SOL    HW2 3886   0.416   4.238   0.942
 1288SOL     OW 3887   1.138   4.104   1.678
 1288SOL    HW1 3888   1.093   4.167   1.742
 1288SOL    HW2 3889   1.231   4.135   1.661
 1289SOL     OW 3890   1.160   3.931   1.477
 1289SOL    HW1 3891   1.160   3.995   1.554
 1289SOL    HW2 3892   1.188   3.979   1.394
 1290SOL     OW 3893   0.008   5.050   0.200
 1290SOL    HW1 3894  -0.085   5.071   0.169
 1290SOL    HW2 3895   0.018   4.951   0.213
 1291SOL     OW 3896   1.002   4.520   1.238
 1291SOL    HW1 3897   1.043   4.488   1.324
 1291SOL    HW2 3898   0.906   4.493   1.235
 1292SOL     OW 3899   0.040   4.268   1.114
 1292SOL    HW1 3900   0.125   4.235   1.073
 1292SOL    HW2 3901   0.053   4.283   1.212
 1293SOL     OW 3902   0.189   4.244   1.722
 1293SOL    HW1 3903   0.248   4.204   1.652
 1293SOL    HW2 3904   0.131   4.315   1.681
 1294SOL     OW 3905   1.369   4.674   1.660
 1294SOL    HW1 3906   1.408   4.763   1.680
 1294SOL    HW2 3907   1.379   4.654   1.563
 1295SOL     OW 3908   0.815   4.296   0.325
 1295SOL    HW1 3909   0.822   4.207   0.279
 1295SOL    HW2 3910   0.721   4.330   0.317
 1296SOL     OW 3911   1.657   4.328   1.206
 1296SOL    HW1 3912   1.619   4.259   1.268
 1296SOL    HW2 3913   1.739   4.292   1.162
 1297SOL     OW 3914   0.671   4.188   1.269
 1297SOL    HW1 3915   0.637   4.099   1.239
 1297SOL    HW2 3916   0.697   4.242   1.189
 1298SOL     OW 3917   0.473   4.224   0.191
 1298SOL    HW1 3918   0.534   4.304   0.195
 1298SOL    HW2 3919   0.378   4.255   0.198
 1299SOL     OW 3920   0.159   4.861   1.466
 1299SOL    HW1 3921   0.181   4.800   1.542
 1299SOL    HW2 3922   0.169   4.812   1.380
 1300SOL     OW 3923   1.347   4.783   1.234
 1300SOL    HW1 3924   1.371   4.720   1.160
 1300SOL    HW2 3925   1.257   4.823   1.216
 1301SOL     OW 3926   1.302   4.579   0.309
 1301SOL    HW1 3927   1.216   4.548   0.351
 1301SOL    HW2 3928   1.298   4.565   0.210
 1302SOL     OW 3929   0.083   4.982   1.022
 1302SOL    HW1 3930   0.078   4.981   1.122
 1302SOL    HW2 3931   0.000   4.941   0.984
 1303SOL     OW 3932   0.903   3.810   0.133
 1303SOL    HW1 3933   0.954   3.811   0.047
 1303SOL    HW2 3934   0.959   3.768   0.204
 1304SOL     OW 3935   1.726   3.859   0.523
 1304SOL    HW1 3936   1.799   3.842   0.456
 1304SOL    HW2 3937   1.695   3.772   0.561
 1305SOL     OW 3938   1.280   4.651   0.672
 1305SOL    HW1 3939   1.340   4.570   0.674
 1305SOL    HW2 3940   1.320   4.720   0.612
 1306SOL     OW 3941   0.830   4.997   1.422
 1306SOL    HW1 3942   0.825   5.030   1.517
 1306SOL    HW2 3943   0.744   5.016   1.376
 1307SOL     OW 3944   1.841   3.899   0.963
 1307SOL    HW1 3945   1.880   3.814   0.927
 1307SOL    HW2 3946   1.743   3.901   0.944
 1308SOL     OW 3947   0.263   4.050   0.720
 1308SOL    HW1 3948   0.184   4.101   0.686
 1308SOL    HW2 3949   0.254   4.035   0.818
 1309SOL     OW 3950   0.822   4.726   1.372
 1309SOL    HW1 3951   0.862   4.725   1.280
 1309SOL    HW2 3952   0.832   4.818   1.412
 1310SOL     OW 3953   0.916   4.634   0.291
 1310SOL    HW1 3954   0.979   4.672   0.223
 1310SOL    HW2 3955   0.956   4.551   0.330
 1311SOL     OW 3956   0.372   5.012   1.490
 1311SOL    HW1 3957   0.359   5.105   1.456
 1311SOL    HW2 3958   0.288   4.960   1.477
 1312SOL     OW 3959   1.614   5.016   1.289
 1312SOL    HW1 3960   1.674   5.019   1.369
 1312SOL    HW2 3961   1.539   5.080   1.302
 1313SOL     OW 3962   1.039   4.822   0.696
 1313SOL    HW1 3963   0.969   4.775   0.750
 1313SOL    HW2 3964   1.098   4.754   0.653
 1314SOL     OW 3965   1.014   3.960   0.971
 1314SOL    HW1 3966   1.006   3.924   0.878
 1314SOL    HW2 3967   1.012   3.884   1.036
 1315SOL     OW 3968   1.709   4.109   1.381
 1315SOL    HW1 3969   1.782   4.178   1.385
 1315SOL    HW2 3970   1.737   4.034   1.322
 1316SOL     OW 3971   0.105   4.737   1.726
 1316SOL    HW1 3972   0.028   4.704   1.780
 1316SOL    HW2 3973   0.190   4.707   1.768
 1317SOL     OW 3974   0.672   3.927   1.489
 1317SOL    HW1 3975   0.762   3.911   1.449
 1317SOL    HW2 3976   0.680   3.932   1.588
 1318SOL     OW 3977   0.075   4.069   0.033
 1318SOL    HW1 3978  -0.017   4.041   0.004
 1318SOL    HW2 3979   0.106   4.146  -0.023
 1319SOL     OW 3980   1.440   4.580   1.398
 1319SOL    HW1 3981   1.383   4.632   1.335
 1319SOL    HW2 3982   1.536   4.592   1.374
 1320SOL     OW 3983   0.072   3.890   0.318
 1320SOL    HW1 3984   0.055   3.973   0.264
 1320SOL    HW2 3985   0.162   3.853   0.296
 1321SOL     OW 3986   0.613   4.566   1.431
 1321SOL    HW1 3987   0.669   4.647   1.414
 1321SOL    HW2 3988   0.672   4.486   1.434
 1322SOL     OW 3989   0.716   4.289   1.708
 1322SOL    HW1 3990   0.735   4.354   1.782
 1322SOL    HW2 3991   0.776   4.209   1.717
 1323SOL     OW 3992   1.450   4.944   1.633
 1323SOL    HW1 3993   1.441   4.934   1.732
 1323SOL    HW2 3994   1.546   4.937   1.607
 1324SOL     OW 3995   1.674   4.607   1.254
 1324SOL    HW1 3996   1.647   4.518   1.217
 1324SOL    HW2 3997   1.675   4.675   1.181
 1325SOL     OW 3998   1.225   4.049   0.449
 1325SOL    HW1 3999   1.290   3.975   0.438
 1325SOL    HW2 4000   1.245   4.099   0.533
 1326SOL     OW 4001   0.594   4.469   0.652
 1326SOL    HW1 4002   0.644   4.554   0.633
 1326SOL    HW2 4003   0.506   4.471   0.604
 1327SOL     OW 4004   1.777   4.066   1.642
 1327SOL    HW1 4005   1.760   4.097   1.548
 1327SOL    HW2 4006   1.693   4.029   1.680
 1328SOL     OW 4007   1.730   4.658   1.517
 1328SOL    HW1 4008   1.768   4.749   1.532
 1328SOL    HW2 4009   1.722   4.641   1.418
 1329SOL     OW 4010   0.859   4.680   0.861
 1329SOL    HW1 4011   0.913   4.611   0.909
 1329SOL    HW2 4012   0.827   4.749   0.927
 1330SOL     OW 4013   1.083   4.708   0.087
 1330SOL    HW1 4014   1.060   4.761   0.005
 1330SOL    HW2 4015   1.164   4.652   0.068
 1331SOL     OW 4016   0.221   5.038   1.844
 1331SOL    HW1 4017   0.156   4.965   1.823
 1331SOL    HW2 4018   0.225   5.052   1.942
 1332SOL     OW 4019   0.079   4.964   0.653
 1332SOL    HW1 4020   0.078   4.917   0.741
 1332SOL    HW2 4021   0.161   4.936   0.602
 1333SOL     OW 4022   0.672   5.115   1.624
 1333SOL    HW1 4023   0.594   5.065   1.662
 1333SOL    HW2 4024   0.669   5.210   1.655
 1334SOL     OW 4025   1.824   3.916   1.227
 1334SOL    HW1 4026   1.820   3.826   1.271
 1334SOL    HW2 4027   1.827   3.905   1.128
 1335SOL     OW 4028   0.428   4.148   0.520
 1335SOL    HW1 4029   0.458   4.076   0.458
 1335SOL    HW2 4030   0.389   4.108   0.603
 1336SOL     OW 4031   1.705   5.211   1.104
 1336SOL    HW1 4032   1.612   5.186   1.077
 1336SOL    HW2 4033   1.731   5.161   1.186
 1337SOL     OW 4034   0.317   4.271   1.280
 1337SOL    HW1 4035   0.355   4.212   1.352
 1337SOL    HW2 4036   0.357   4.245   1.192
 1338SOL     OW 4037   1.424   3.938   1.112
 1338SOL    HW1 4038   1.476   3.873   1.167
 1338SOL    HW2 4039   1.375   4.001   1.173
 1339SOL     OW 4040   1.001   3.758   1.154
 1339SOL    HW1 4041   0.938   3.686   1.123
 1339SOL    HW2 4042   1.094   3.722   1.154
 1340SOL     OW 4043   0.770   5.054   0.301
 1340SOL    HW1 4044   0.724   4.967   0.318
 1340SOL    HW2 4045   0.861   5.051   0.342
 1341SOL     OW 4046   1.352   3.776   0.168
 1341SOL    HW1 4047   1.387   3.735   0.084
 1341SOL    HW2 4048   1.262   3.738   0.188
 1342SOL     OW 4049   1.300   4.177   0.691
 1342SOL    HW1 4050   1.241   4.257   0.695
 1342SOL    HW2 4051   1.315   4.142   0.784
 1343SOL     OW 4052   1.593   3.945   0.882
 1343SOL    HW1 4053   1.509   3.944   0.936
 1343SOL    HW2 4054   1.595   4.028   0.826
 1344SOL     OW 4055   0.039   4.801   0.300
 1344SOL    HW1 4056   0.138   4.790   0.291
 1344SOL    HW2 4057  -0.001   4.715   0.332
 1345SOL     OW 4058   0.230   4.352   1.975
 1345SOL    HW1 4059   0.137   4.350   2.012
 1345SOL    HW2 4060   0.231   4.313   1.883
 1346SOL     OW 4061   0.225   3.999   2.858
 1346SOL    HW1 4062   0.260   3.982   2.950
 1346SOL    HW2 4063   0.137   3.954   2.846
 1347SOL     OW 4064   0.019   4.092   2.509
 1347SOL    HW1 4065  -0.063   4.135   2.548
 1347SOL    HW2 4066  -0.009   4.019   2.446
 1348SOL     OW 4067   0.569   4.999   3.027
 1348SOL    HW1 4068   0.476   4.992   2.990
 1348SOL    HW2 4069   0.580   5.088   3.071
 1349SOL     OW 4070   1.555   5.235   2.565
 1349SOL    HW1 4071   1.498   5.219   2.646
 1349SOL    HW2 4072   1.496   5.245   2.485
 1350SOL     OW 4073   1.135   4.427   2.579
 1350SOL    HW1 4074   1.192   4.505   2.554
 1350SOL    HW2 4075   1.075   4.453   2.655
 1351SOL     OW 4076   1.755   4.331   2.093
 1351SOL    HW1 4077   1.743   4.318   1.994
 1351SOL    HW2 4078   1.725   4.250   2.142
 1352SOL     OW 4079   0.768   4.868   2.885
 1352SOL    HW1 4080   0.690   4.885   2.945
 1352SOL    HW2 4081   0.802   4.955   2.849
 1353SOL     OW 4082   0.850   4.522   3.685
 1353SOL    HW1 4083   0.846   4.598   3.750
 1353SOL    HW2 4084   0.872   4.558   3.594
 1354SOL     OW 4085   0.685   4.736   2.527
 1354SOL    HW1 4086   0.754   4.720   2.597
 1354SOL    HW2 4087   0.612   4.793   2.565
 1355SOL     OW 4088   0.686   4.885   3.665
 1355SOL    HW1 4089   0.746   4.964   3.679
 1355SOL    HW2 4090   0.600   4.916   3.624
 1356SOL     OW 4091   0.335   5.159   2.923
 1356SOL    HW1 4092   0.257   5.128   2.870
 1356SOL    HW2 4093   0.393   5.217   2.866
 1357SOL     OW 4094   0.438   4.116   3.361
 1357SOL    HW1 4095   0.520   4.060   3.370
 1357SOL    HW2 4096   0.357   4.058   3.365
 1358SOL     OW 4097   1.603   4.171   2.599
 1358SOL    HW1 4098   1.529   4.217   2.549
 1358SOL    HW2 4099   1.654   4.239   2.652
 1359SOL     OW 4100   0.231   5.437   2.345
 1359SOL    HW1 4101   0.265   5.514   2.399
 1359SOL    HW2 4102   0.275   5.437   2.255
 1360SOL     OW 4103   1.127   5.065   3.552
 1360SOL    HW1 4104   1.174   5.065   3.640
 1360SOL    HW2 4105   1.079   4.978   3.541
 1361SOL     OW 4106   0.240   4.815   2.748
 1361SOL    HW1 4107   0.254   4.731   2.800
 1361SOL    HW2 4108   0.185   4.879   2.803
 1362SOL     OW 4109   0.606   4.688   1.985
 1362SOL    HW1 4110   0.613   4.772   1.931
 1362SOL    HW2 4111   0.652   4.701   2.073
 1363SOL     OW 4112   1.594   3.838   3.342
 1363SOL    HW1 4113   1.576   3.905   3.270
 1363SOL    HW2 4114   1.591   3.884   3.431
 1364SOL     OW 4115   0.122   4.367   2.425
 1364SOL    HW1 4116   0.077   4.279   2.442
 1364SOL    HW2 4117   0.121   4.421   2.509
 1365SOL     OW 4118   1.689   4.646   2.474
 1365SOL    HW1 4119   1.784   4.617   2.482
 1365SOL    HW2 4120   1.681   4.711   2.399
 1366SOL     OW 4121   1.641   4.832   2.294
 1366SOL    HW1 4122   1.727   4.834   2.242
 1366SOL    HW2 4123   1.655   4.879   2.382
 1367SOL     OW 4124   0.113   4.461   3.459
 1367SOL    HW1 4125   0.201   4.448   3.504
 1367SOL    HW2 4126   0.100   4.558   3.437
 1368SOL     OW 4127   0.613   5.089   2.588
 1368SOL    HW1 4128   0.564   5.002   2.597
 1368SOL    HW2 4129   0.590   5.132   2.501
 1369SOL     OW 4130   1.293   4.952   3.285
 1369SOL    HW1 4131   1.330   4.879   3.227
 1369SOL    HW2 4132   1.345   4.957   3.370
 1370SOL     OW 4133   0.809   3.728   2.364
 1370SOL    HW1 4134   0.849   3.819   2.355
 1370SOL    HW2 4135   0.709   3.736   2.370
 1371SOL     OW 4136   0.197   4.700   3.126
 1371SOL    HW1 4137   0.286   4.655   3.112
 1371SOL    HW2 4138   0.124   4.635   3.107
 1372SOL     OW 4139   1.525   4.723   2.052
 1372SOL    HW1 4140   1.462   4.647   2.065
 1372SOL    HW2 4141   1.573   4.741   2.138
 1373SOL     OW 4142   0.317   3.975   3.663
 1373SOL    HW1 4143   0.388   4.046   3.669
 1373SOL    HW2 4144   0.229   4.014   3.691
 1374SOL     OW 4145   1.466   5.141   2.815
 1374SOL    HW1 4146   1.407   5.147   2.895
 1374SOL    HW2 4147   1.451   5.053   2.769
 1375SOL     OW 4148   0.598   4.453   2.132
 1375SOL    HW1 4149   0.622   4.522   2.064
 1375SOL    HW2 4150   0.520   4.486   2.186
 1376SOL     OW 4151   1.281   4.069   2.806
 1376SOL    HW1 4152   1.195   4.019   2.793
 1376SOL    HW2 4153   1.343   4.015   2.862
 1377SOL     OW 4154   0.807   4.329   3.327
 1377SOL    HW1 4155   0.760   4.326   3.416
 1377SOL    HW2 4156   0.756   4.274   3.261
 1378SOL     OW 4157   1.394   4.193   3.536
 1378SOL    HW1 4158   1.374   4.236   3.624
 1378SOL    HW2 4159   1.472   4.131   3.545
 1379SOL     OW 4160   0.973   4.614   3.434
 1379SOL    HW1 4161   1.019   4.530   3.405
 1379SOL    HW2 4162   0.917   4.648   3.359
 1380SOL     OW 4163   0.991   4.134   3.104
 1380SOL    HW1 4164   0.914   4.168   3.158
 1380SOL    HW2 4165   0.957   4.083   3.025
 1381SOL     OW 4166   1.041   4.425   2.291
 1381SOL    HW1 4167   1.067   4.421   2.387
 1381SOL    HW2 4168   0.956   4.374   2.277
 1382SOL     OW 4169   0.076   4.535   2.651
 1382SOL    HW1 4170   0.175   4.523   2.660
 1382SOL    HW2 4171   0.052   4.630   2.672
 1383SOL     OW 4172   0.865   4.072   2.057
 1383SOL    HW1 4173   0.924   4.135   2.008
 1383SOL    HW2 4174   0.884   3.978   2.028
 1384SOL     OW 4175   1.719   4.309   3.693
 1384SOL    HW1 4176   1.693   4.398   3.657
 1384SOL    HW2 4177   1.717   4.241   3.620
 1385SOL     OW 4178   1.362   4.868   2.407
 1385SOL    HW1 4179   1.445   4.839   2.359
 1385SOL    HW2 4180   1.313   4.935   2.351
 1386SOL     OW 4181   0.550   3.920   2.747
 1386SOL    HW1 4182   0.545   3.915   2.847
 1386SOL    HW2 4183   0.552   4.016   2.718
 1387SOL     OW 4184   1.795   4.790   2.735
 1387SOL    HW1 4185   1.733   4.775   2.659
 1387SOL    HW2 4186   1.743   4.801   2.820
 1388SOL     OW 4187   0.321   4.667   2.104
 1388SOL    HW1 4188   0.403   4.706   2.062
 1388SOL    HW2 4189   0.294   4.585   2.055
 1389SOL     OW 4190   1.458   4.459   2.590
 1389SOL    HW1 4191   1.453   4.394   2.665
 1389SOL    HW2 4192   1.538   4.518   2.603
 1390SOL     OW 4193   0.461   4.990   3.589
 1390SOL    HW1 4194   0.411   4.991   3.503
 1390SOL    HW2 4195   0.398   4.972   3.665
 1391SOL     OW 4196   1.111   5.500   2.099
 1391SOL    HW1 4197   1.051   5.438   2.149
 1391SOL    HW2 4198   1.142   5.456   2.014
 1392SOL     OW 4199   0.202   4.009   3.360
 1392SOL    HW1 4200   0.122   4.069   3.347
 1392SOL    HW2 4201   0.192   3.960   3.446
 1393SOL     OW 4202   1.632   5.101   1.943
 1393SOL    HW1 4203   1.600   5.195   1.933
 1393SOL    HW2 4204   1.556   5.038   1.931
 1394SOL     OW 4205   1.400   3.831   2.288
 1394SOL    HW1 4206   1.376   3.794   2.198
 1394SOL    HW2 4207   1.499   3.847   2.292
 1395SOL     OW 4208   0.382   4.424   2.342
 1395SOL    HW1 4209   0.427   4.334   2.339
 1395SOL    HW2 4210   0.288   4.413   2.375
 1396SOL     OW 4211   1.547   3.946   3.591
 1396SOL    HW1 4212   1.542   3.983   3.683
 1396SOL    HW2 4213   1.475   3.877   3.579
 1397SOL     OW 4214   0.614   3.846   1.979
 1397SOL    HW1 4215   0.712   3.824   1.986
 1397SOL    HW2 4216   0.583   3.829   1.886
 1398SOL     OW 4217   0.781   3.988   3.611
 1398SOL    HW1 4218   0.848   3.927   3.654
 1398SOL    HW2 4219   0.708   4.007   3.676
 1399SOL     OW 4220   1.351   4.314   3.295
 1399SOL    HW1 4221   1.379   4.271   3.380
 1399SOL    HW2 4222   1.376   4.410   3.296
 1400SOL     OW 4223   0.922   4.227   2.761
 1400SOL    HW1 4224   0.897   4.218   2.665
 1400SOL    HW2 4225   0.970   4.145   2.792
 1401SOL     OW 4226   0.539   3.788   2.374
 1401SOL    HW1 4227   0.458   3.789   2.432
 1401SOL    HW2 4228   0.542   3.871   2.319
 1402SOL     OW 4229   1.434   4.912   1.903
 1402SOL    HW1 4230   1.466   4.836   1.960
 1402SOL    HW2 4231   1.342   4.939   1.933
 1403SOL     OW 4232   0.297   3.759   2.033
 1403SOL    HW1 4233   0.346   3.843   2.012
 1403SOL    HW2 4234   0.359   3.694   2.078
 1404SOL     OW 4235   0.935   3.960   2.342
 1404SOL    HW1 4236   0.887   4.001   2.264
 1404SOL    HW2 4237   1.034   3.958   2.323
 1405SOL     OW 4238   1.076   4.407   3.326
 1405SOL    HW1 4239   0.996   4.346   3.329
 1405SOL    HW2 4240   1.157   4.354   3.302
 1406SOL     OW 4241   1.227   5.294   2.655
 1406SOL    HW1 4242   1.248   5.368   2.590
 1406SOL    HW2 4243   1.295   5.294   2.728
 1407SOL     OW 4244   0.459   4.876   2.603
 1407SOL    HW1 4245   0.388   4.849   2.668
 1407SOL    HW2 4246   0.433   4.848   2.510
 1408SOL     OW 4247   1.032   4.273   1.878
 1408SOL    HW1 4248   0.991   4.355   1.839
 1408SOL    HW2 4249   1.096   4.299   1.951
 1409SOL     OW 4250   0.078   4.280   3.248
 1409SOL    HW1 4251   0.170   4.279   3.207
 1409SOL    HW2 4252   0.072   4.354   3.315
 1410SOL     OW 4253   0.561   3.946   3.009
 1410SOL    HW1 4254   0.599   3.862   3.046
 1410SOL    HW2 4255   0.473   3.965   3.053
 1411SOL     OW 4256   0.866   4.178   2.504
 1411SOL    HW1 4257   0.834   4.250   2.442
 1411SOL    HW2 4258   0.890   4.097   2.451
 1412SOL     OW 4259   1.017   3.763   2.615
 1412SOL    HW1 4260   0.945   3.768   2.546
 1412SOL    HW2 4261   0.993   3.694   2.684
 1413SOL     OW 4262   1.429   4.897   2.729
 1413SOL    HW1 4263   1.374   4.813   2.722
 1413SOL    HW2 4264   1.455   4.926   2.637
 1414SOL     OW 4265   1.466   4.314   2.854
 1414SOL    HW1 4266   1.436   4.219   2.861
 1414SOL    HW2 4267   1.539   4.330   2.920
 1415SOL     OW 4268   1.857   4.557   2.239
 1415SOL    HW1 4269   1.899   4.493   2.303
 1415SOL    HW2 4270   1.819   4.506   2.161
 1416SOL     OW 4271   1.664   5.004   2.519
 1416SOL    HW1 4272   1.763   5.012   2.533
 1416SOL    HW2 4273   1.619   5.088   2.550
 1417SOL     OW 4274   1.390   4.299   1.940
 1417SOL    HW1 4275   1.336   4.278   2.021
 1417SOL    HW2 4276   1.481   4.258   1.949
 1418SOL     OW 4277   0.527   3.980   2.190
 1418SOL    HW1 4278   0.554   3.921   2.115
 1418SOL    HW2 4279   0.527   4.075   2.159
 1419SOL     OW 4280   1.754   4.947   3.450
 1419SOL    HW1 4281   1.845   4.908   3.437
 1419SOL    HW2 4282   1.762   5.043   3.474
 1420SOL     OW 4283   1.064   5.071   3.202
 1420SOL    HW1 4284   0.984   5.048   3.257
 1420SOL    HW2 4285   1.147   5.045   3.251
 1421SOL     OW 4286   1.111   4.919   2.962
 1421SOL    HW1 4287   1.071   4.963   3.043
 1421SOL    HW2 4288   1.070   4.956   2.879
 1422SOL     OW 4289   1.638   4.823   2.941
 1422SOL    HW1 4290   1.643   4.904   3.000
 1422SOL    HW2 4291   1.552   4.825   2.890
 1423SOL     OW 4292   0.915   3.813   3.264
 1423SOL    HW1 4293   0.940   3.793   3.169
 1423SOL    HW2 4294   0.987   3.869   3.306
 1424SOL     OW 4295   0.980   4.840   3.581
 1424SOL    HW1 4296   0.881   4.846   3.591
 1424SOL    HW2 4297   1.003   4.760   3.525
 1425SOL     OW 4298   0.705   4.774   2.230
 1425SOL    HW1 4299   0.691   4.781   2.329
 1425SOL    HW2 4300   0.789   4.723   2.212
 1426SOL     OW 4301   0.410   4.537   3.113
 1426SOL    HW1 4302   0.496   4.549   3.163
 1426SOL    HW2 4303   0.368   4.450   3.140
 1427SOL     OW 4304   1.274   4.110   3.124
 1427SOL    HW1 4305   1.295   4.184   3.188
 1427SOL    HW2 4306   1.185   4.127   3.081
 1428SOL     OW 4307   0.064   5.288   3.193
 1428SOL    HW1 4308   0.018   5.370   3.159
 1428SOL    HW2 4309   0.162   5.307   3.202
 1429SOL     OW 4310   0.367   4.824   2.363
 1429SOL    HW1 4311   0.360   4.907   2.307
 1429SOL    HW2 4312   0.371   4.744   2.303
 1430SOL     OW 4313   0.566   4.261   2.727
 1430SOL    HW1 4314   0.578   4.327   2.653
 1430SOL    HW2 4315   0.612   4.295   2.810
 1431SOL     OW 4316   1.252   5.072   2.250
 1431SOL    HW1 4317   1.302   5.149   2.290
 1431SOL    HW2 4318   1.157   5.074   2.282
 1432SOL     OW 4319   1.272   5.169   3.004
 1432SOL    HW1 4320   1.319   5.182   3.091
 1432SOL    HW2 4321   1.206   5.095   3.013
 1433SOL     OW 4322   1.582   4.363   2.334
 1433SOL    HW1 4323   1.551   4.424   2.407
 1433SOL    HW2 4324   1.632   4.415   2.265
 1434SOL     OW 4325   0.402   4.475   3.460
 1434SOL    HW1 4326   0.470   4.530   3.413
 1434SOL    HW2 4327   0.442   4.387   3.487
 1435SOL     OW 4328   1.587   4.503   3.532
 1435SOL    HW1 4329   1.495   4.541   3.527
 1435SOL    HW2 4330   1.647   4.550   3.467
 1436SOL     OW 4331   1.013   3.829   3.632
 1436SOL    HW1 4332   1.019   3.914   3.580
 1436SOL    HW2 4333   1.045   3.753   3.575
 1437SOL     OW 4334   0.504   3.774   3.602
 1437SOL    HW1 4335   0.462   3.717   3.532
 1437SOL    HW2 4336   0.438   3.843   3.634
 1438SOL     OW 4337   0.573   4.594   2.891
 1438SOL    HW1 4338   0.617   4.683   2.882
 1438SOL    HW2 4339   0.510   4.594   2.968
 1439SOL     OW 4340   1.360   4.586   2.907
 1439SOL    HW1 4341   1.285   4.586   2.841
 1439SOL    HW2 4342   1.397   4.494   2.916
 1440SOL     OW 4343   1.209   4.249   2.137
 1440SOL    HW1 4344   1.222   4.165   2.191
 1440SOL    HW2 4345   1.180   4.323   2.197
 1441SOL     OW 4346   0.307   3.937   3.093
 1441SOL    HW1 4347   0.284   3.974   3.183
 1441SOL    HW2 4348   0.277   3.842   3.087
 1442SOL     OW 4349   0.037   5.034   3.144
 1442SOL    HW1 4350   0.090   4.985   3.212
 1442SOL    HW2 4351   0.059   5.132   3.149
 1443SOL     OW 4352   0.732   4.358   2.926
 1443SOL    HW1 4353   0.791   4.332   2.850
 1443SOL    HW2 4354   0.704   4.454   2.915
 1444SOL     OW 4355   1.728   4.659   3.716
 1444SOL    HW1 4356   1.682   4.652   3.627
 1444SOL    HW2 4357   1.666   4.703   3.782
 1445SOL     OW 4358   0.307   3.787   2.480
 1445SOL    HW1 4359   0.296   3.881   2.513
 1445SOL    HW2 4360   0.302   3.724   2.557
 1446SOL     OW 4361   1.622   4.091   2.236
 1446SOL    HW1 4362   1.624   4.015   2.300
 1446SOL    HW2 4363   1.574   4.168   2.276
 1447SOL     OW 4364   1.023   4.490   2.828
 1447SOL    HW1 4365   1.038   4.511   2.924
 1447SOL    HW2 4366   0.993   4.395   2.819
 1448SOL     OW 4367   1.859   5.242   3.467
 1448SOL    HW1 4368   1.873   5.269   3.372
 1448SOL    HW2 4369   1.942   5.264   3.520
 1449SOL     OW 4370   0.350   4.622   3.666
 1449SOL    HW1 4371   0.426   4.666   3.714
 1449SOL    HW2 4372   0.385   4.575   3.584
 1450SOL     OW 4373   1.540   3.998   1.987
 1450SOL    HW1 4374   1.479   3.923   2.010
 1450SOL    HW2 4375   1.562   4.050   2.070
 1451SOL     OW 4376   1.303   4.562   1.904
 1451SOL    HW1 4377   1.337   4.469   1.919
 1451SOL    HW2 4378   1.321   4.589   1.809
 1452SOL     OW 4379   0.319   4.534   2.811
 1452SOL    HW1 4380   0.412   4.570   2.816
 1452SOL    HW2 4381   0.313   4.449   2.863
 1453SOL     OW 4382   0.339   4.233   2.868
 1453SOL    HW1 4383   0.287   4.150   2.851
 1453SOL    HW2 4384   0.416   4.238   2.804
 1454SOL     OW 4385   1.138   4.104   3.540
 1454SOL    HW1 4386   1.093   4.167   3.604
 1454SOL    HW2 4387   1.231   4.135   3.523
 1455SOL     OW 4388   1.160   3.931   3.339
 1455SOL    HW1 4389   1.160   3.995   3.416
 1455SOL    HW2 4390   1.188   3.979   3.256
 1456SOL     OW 4391   0.008   5.050   2.062
 1456SOL    HW1 4392  -0.085   5.071   2.031
 1456SOL    HW2 4393   0.018   4.951   2.075
 1457SOL     OW 4394   1.002   4.520   3.100
 1457SOL    HW1 4395   1.043   4.488   3.186
 1457SOL    HW2 4396   0.906   4.493   3.097
 1458SOL     OW 4397   0.040   4.268   2.976
 1458SOL    HW1 4398   0.125   4.235   2.935
 1458SOL    HW2 4399   0.053   4.283   3.074
 1459SOL     OW 4400   0.189   4.244   3.584
 1459SOL    HW1 4401   0.248   4.204   3.514
 1459SOL    HW2 4402   0.131   4.315   3.543
 1460SOL     OW 4403   1.369   4.674   3.522
 1460SOL    HW1 4404   1.408   4.763   3.542
 1460SOL    HW2 4405   1.379   4.654   3.425
 1461SOL     OW 4406   0.815   4.296   2.187
 1461SOL    HW1 4407   0.822   4.207   2.141
 1461SOL    HW2 4408   0.721   4.330   2.179
 1462SOL     OW 4409   1.657   4.328   3.068
 1462SOL    HW1 4410   1.619   4.259   3.130
 1462SOL    HW2 4411   1.739   4.292   3.024
 1463SOL     OW 4412   0.671   4.188   3.131
 1463SOL    HW1 4413   0.637   4.099   3.101
 1463SOL    HW2 4414   0.697   4.242   3.051
 1464SOL     OW 4415   0.473   4.224   2.053
 1464SOL    HW1 4416   0.534   4.304   2.057
 1464SOL    HW2 4417   0.378   4.255   2.060
 1465SOL     OW 4418   0.159   4.861   3.328
 1465SOL    HW1 4419   0.181   4.800   3.404
 1465SOL    HW2 4420   0.169   4.812   3.242
 1466SOL     OW 4421   1.347   4.783   3.096
 1466SOL    HW1 4422   1.371   4.720   3.022
 1466SOL    HW2 4423   1.257   4.823   3.078
 1467SOL     OW 4424   1.302   4.579   2.171
 1467SOL    HW1 4425   1.216   4.548   2.213
 1467SOL    HW2 4426   1.298   4.565   2.072
 1468SOL     OW 4427   0.083   4.982   2.884
 1468SOL    HW1 4428   0.078   4.981   2.984
 1468SOL    HW2 4429   0.000   4.941   2.846
 1469SOL     OW 4430   1.726   3.859   2.385
 1469SOL    HW1 4431   1.799   3.842   2.318
 1469SOL    HW2 4432   1.695   3.772   2.423
 1470SOL     OW 4433   1.280   4.651   2.534
 1470SOL    HW1 4434   1.340   4.570   2.536
 1470SOL    HW2 4435   1.320   4.720   2.474
 1471SOL     OW 4436   0.830   4.997   3.284
 1471SOL    HW1 4437   0.825   5.030   3.379
 1471SOL    HW2 4438   0.744   5.016   3.238
 1472SOL     OW 4439   1.841   3.899   2.825
 1472SOL    HW1 4440   1.880   3.814   2.789
 1472SOL    HW2 4441   1.743   3.901   2.806
 1473SOL     OW 4442   0.263   4.050   2.582
 1473SOL    HW1 4443   0.184   4.101   2.548
 1473SOL    HW2 4444   0.254   4.035   2.680
 1474SOL     OW 4445   0.822   4.726   3.234
 1474SOL    HW1 4446   0.862   4.725   3.142
 1474SOL    HW2 4447   0.832   4.818   3.274
 1475SOL     OW 4448   0.916   4.634   2.153
 1475SOL    HW1 4449   0.979   4.672   2.085
 1475SOL    HW2 4450   0.956   4.551   2.192
 1476SOL     OW 4451   0.372   5.012   3.352
 1476SOL    HW1 4452   0.359   5.105   3.318
 1476SOL    HW2 4453   0.288   4.960   3.339
 1477SOL     OW 4454   1.614   5.016   3.151
 1477SOL    HW1 4455   1.674   5.019   3.231
 1477SOL    HW2 4456   1.539   5.080   3.164
 1478SOL     OW 4457   1.039   4.822   2.558
 1478SOL    HW1 4458   0.969   4.775   2.612
 1478SOL    HW2 4459   1.098   4.754   2.515
 1479SOL     OW 4460   1.014   3.960   2.833
 1479SOL    HW1 4461   1.006   3.924   2.740
 1479SOL    HW2 4462   1.012   3.884   2.898
 1480SOL     OW 4463   1.709   4.109   3.243
 1480SOL    HW1 4464   1.782   4.178   3.247
 1480SOL    HW2 4465   1.737   4.034   3.184
 1481SOL     OW 4466   0.105   4.737   3.588
 1481SOL    HW1 4467   0.028   4.704   3.642
 1481SOL    HW2 4468   0.190   4.707   3.630
 1482SOL     OW 4469   0.672   3.927   3.351
 1482SOL    HW1 4470   0.762   3.911   3.311
 1482SOL    HW2 4471   0.680   3.932   3.450
 1483SOL     OW 4472   0.075   4.069   1.895
 1483SOL    HW1 4473  -0.017   4.041   1.866
 1483SOL    HW2 4474   0.106   4.146   1.839
 1484SOL     OW 4475   1.440   4.580   3.260
 1484SOL    HW1 4476   1.383   4.632   3.197
 1484SOL    HW2 4477   1.536   4.592   3.236
 1485SOL     OW 4478   0.072   3.890   2.180
 1485SOL    HW1 4479   0.055   3.973   2.126
 1485SOL    HW2 4480   0.162   3.853   2.158
 1486SOL     OW 4481   0.613   4.566   3.293
 1486SOL    HW1 4482   0.669   4.647   3.276
 1486SOL    HW2 4483   0.672   4.486   3.296
 1487SOL     OW 4484   0.716   4.289   3.570
 1487SOL    HW1 4485   0.735   4.354   3.644
 1487SOL    HW2 4486   0.776   4.209   3.579
 1488SOL     OW 4487   1.450   4.944   3.495
 1488SOL    HW1 4488   1.441   4.934   3.594
 1488SOL    HW2 4489   1.546   4.937   3.469
 1489SOL     OW 4490   1.674   4.607   3.116
 1489SOL    HW1 4491   1.647   4.518   3.079
 1489SOL    HW2 4492   1.675   4.675   3.043
 1490SOL     OW 4493   1.225   4.049   2.311
 1490SOL    HW1 4494   1.290   3.975   2.300
 1490SOL    HW2 4495   1.245   4.099   2.395
 1491SOL     OW 4496   0.594   4.469   2.514
 1491SOL    HW1 4497   0.644   4.554   2.495
 1491SOL    HW2 4498   0.506   4.471   2.466
 1492SOL     OW 4499   1.777   4.066   3.504
 1492SOL    HW1 4500   1.760   4.097   3.410
 1492SOL    HW2 4501   1.693   4.029   3.542
 1493SOL     OW 4502   1.730   4.658   3.379
 1493SOL    HW1 4503   1.768   4.749   3.394
 1493SOL    HW2 4504   1.722   4.641   3.280
 1494SOL     OW 4505   0.859   5.098   1.878
 1494SOL    HW1 4506   0.813   5.113   1.966
 1494SOL    HW2 4507   0.903   5.183   1.848
 1495SOL     OW 4508   0.859   4.680   2.723
 1495SOL    HW1 4509   0.913   4.611   2.771
 1495SOL    HW2 4510   0.827   4.749   2.789
 1496SOL     OW 4511   1.083   4.708   1.949
 1496SOL    HW1 4512   1.060   4.761   1.867
 1496SOL    HW2 4513   1.164   4.652   1.930
 1497SOL     OW 4514   0.221   5.038   3.706
 1497SOL    HW1 4515   0.156   4.965   3.685
 1497SOL    HW2 4516   0.225   5.052   3.804
 1498SOL     OW 4517   0.079   4.964   2.515
 1498SOL    HW1 4518   0.078   4.917   2.603
 1498SOL    HW2 4519   0.161   4.936   2.464
 1499SOL     OW 4520   0.672   5.115   3.486
 1499SOL    HW1 4521   0.594   5.065   3.524
 1499SOL    HW2 4522   0.669   5.210   3.517
 1500SOL     OW 4523   1.824   3.916   3.089
 1500SOL    HW1 4524   1.820   3.826   3.133
 1500SOL    HW2 4525   1.827   3.905   2.990
 1501SOL     OW 4526   0.428   4.148   2.382
 1501SOL    HW1 4527   0.458   4.076   2.320
 1501SOL    HW2 4528   0.389   4.108   2.465
 1502SOL     OW 4529   1.705   5.211   2.966
 1502SOL    HW1 4530   1.612   5.186   2.939
 1502SOL    HW2 4531   1.731   5.161   3.048
 1503SOL     OW 4532   0.317   4.271   3.142
 1503SOL    HW1 4533   0.355   4.212   3.214
 1503SOL    HW2 4534   0.357   4.245   3.054
 1504SOL     OW 4535   1.424   3.938   2.974
 1504SOL    HW1 4536   1.476   3.873   3.029
 1504SOL    HW2 4537   1.375   4.001   3.035
 1505SOL     OW 4538   1.001   3.758   3.016
 1505SOL    HW1 4539   0.938   3.686   2.985
 1505SOL    HW2 4540   1.094   3.722   3.016
 1506SOL     OW 4541   0.770   5.054   2.163
 1506SOL    HW1 4542   0.724   4.967   2.180
 1506SOL    HW2 4543   0.861   5.051   2.204
 1507SOL     OW 4544   1.352   3.776   2.030
 1507SOL    HW1 4545   1.387   3.735   1.946
 1507SOL    HW2 4546   1.262   3.738   2.050
 1508SOL     OW 4547   1.300   4.177   2.553
 1508SOL    HW1 4548   1.241   4.257   2.557
 1508SOL    HW2 4549   1.315   4.142   2.646
 1509SOL     OW 4550   1.593   3.945   2.744
 1509SOL    HW1 4551   1.509   3.944   2.798
 1509SOL    HW2 4552   1.595   4.028   2.688
 1510SOL     OW 4553   0.039   4.801   2.162
 1510SOL    HW1 4554   0.138   4.790   2.153
 1510SOL    HW2 4555  -0.001   4.715   2.194
 1511SOL     OW 4556   0.230   4.352   3.837
 1511SOL    HW1 4557   0.137   4.350   3.874
 1511SOL    HW2 4558   0.231   4.313   3.745
 1512SOL     OW 4559   0.225   3.999   4.720
 1512SOL    HW1 4560   0.260   3.982   4.812
 1512SOL    HW2 4561   0.137   3.954   4.708
 1513SOL     OW 4562   0.019   4.092   4.371
 1513SOL    HW1 4563  -0.063   4.135   4.410
 1513SOL    HW2 4564  -0.009   4.019   4.308
 1514SOL     OW 4565   0.569   4.999   4.889
 1514SOL    HW1 4566   0.476   4.992   4.852
 1514SOL    HW2 4567   0.580   5.088   4.933
 1515SOL     OW 4568   1.555   5.235   4.427
 1515SOL    HW1 4569   1.498   5.219   4.508
 1515SOL    HW2 4570   1.496   5.245   4.347
 1516SOL     OW 4571   1.135   4.427   4.441
 1516SOL    HW1 4572   1.192   4.505   4.416
 1516SOL    HW2 4573   1.075   4.453   4.517
 1517SOL     OW 4574   1.755   4.331   3.955
 1517SOL    HW1 4575   1.743   4.318   3.856
 1517SOL    HW2 4576   1.725   4.250   4.004
 1518SOL     OW 4577   0.768   4.868   4.747
 1518SOL    HW1 4578   0.690   4.885   4.807
 1518SOL    HW2 4579   0.802   4.955   4.711
 1519SOL     OW 4580   0.685   4.736   4.389
 1519SOL    HW1 4581   0.754   4.720   4.459
 1519SOL    HW2 4582   0.612   4.793   4.427
 1520SOL     OW 4583   0.335   5.159   4.785
 1520SOL    HW1 4584   0.257   5.128   4.732
 1520SOL    HW2 4585   0.393   5.217   4.728
 1521SOL     OW 4586   0.438   4.116   5.223
 1521SOL    HW1 4587   0.520   4.060   5.232
 1521SOL    HW2 4588   0.357   4.058   5.227
 1522SOL     OW 4589   1.603   4.171   4.461
 1522SOL    HW1 4590   1.529   4.217   4.411
 1522SOL    HW2 4591   1.654   4.239   4.514
 1523SOL     OW 4592   0.231   5.437   4.207
 1523SOL    HW1 4593   0.265   5.514   4.261
 1523SOL    HW2 4594   0.275   5.437   4.117
 1524SOL     OW 4595   0.240   4.815   4.610
 1524SOL    HW1 4596   0.254   4.731   4.662
 1524SOL    HW2 4597   0.185   4.879   4.665
 1525SOL     OW 4598   0.606   4.688   3.847
 1525SOL    HW1 4599   0.613   4.772   3.793
 1525SOL    HW2 4600   0.652   4.701   3.935
 1526SOL     OW 4601   0.122   4.367   4.287
 1526SOL    HW1 4602   0.077   4.279   4.304
 1526SOL    HW2 4603   0.121   4.421   4.371
 1527SOL     OW 4604   1.689   4.646   4.336
 1527SOL    HW1 4605   1.784   4.617   4.344
 1527SOL    HW2 4606   1.681   4.711   4.261
 1528SOL     OW 4607   1.641   4.832   4.156
 1528SOL    HW1 4608   1.727   4.834   4.104
 1528SOL    HW2 4609   1.655   4.879   4.244
 1529SOL     OW 4610   0.613   5.089   4.450
 1529SOL    HW1 4611   0.564   5.002   4.459
 1529SOL    HW2 4612   0.590   5.132   4.363
 1530SOL     OW 4613   0.809   3.728   4.226
 1530SOL    HW1 4614   0.849   3.819   4.217
 1530SOL    HW2 4615   0.709   3.736   4.232
 1531SOL     OW 4616   0.197   4.700   4.988
 1531SOL    HW1 4617   0.286   4.655   4.974
 1531SOL    HW2 4618   0.124   4.635   4.969
 1532SOL     OW 4619   1.525   4.723   3.914
 1532SOL    HW1 4620   1.462   4.647   3.927
 1532SOL    HW2 4621   1.573   4.741   4.000
 1533SOL     OW 4622   1.466   5.141   4.677
 1533SOL    HW1 4623   1.407   5.147   4.757
 1533SOL    HW2 4624   1.451   5.053   4.631
 1534SOL     OW 4625   0.598   4.453   3.994
 1534SOL    HW1 4626   0.622   4.522   3.926
 1534SOL    HW2 4627   0.520   4.486   4.048
 1535SOL     OW 4628   1.281   4.069   4.668
 1535SOL    HW1 4629   1.195   4.019   4.655
 1535SOL    HW2 4630   1.343   4.015   4.724
 1536SOL     OW 4631   0.807   4.329   5.189
 1536SOL    HW1 4632   0.760   4.326   5.278
 1536SOL    HW2 4633   0.756   4.274   5.123
 1537SOL     OW 4634   0.991   4.134   4.966
 1537SOL    HW1 4635   0.914   4.168   5.020
 1537SOL    HW2 4636   0.957   4.083   4.887
 1538SOL     OW 4637   1.041   4.425   4.153
 1538SOL    HW1 4638   1.067   4.421   4.249
 1538SOL    HW2 4639   0.956   4.374   4.139
 1539SOL     OW 4640   0.076   4.535   4.513
 1539SOL    HW1 4641   0.175   4.523   4.522
 1539SOL    HW2 4642   0.052   4.630   4.534
 1540SOL     OW 4643   0.865   4.072   3.919
 1540SOL    HW1 4644   0.924   4.135   3.870
 1540SOL    HW2 4645   0.884   3.978   3.890
 1541SOL     OW 4646   1.362   4.868   4.269
 1541SOL    HW1 4647   1.445   4.839   4.221
 1541SOL    HW2 4648   1.313   4.935   4.213
 1542SOL     OW 4649   0.550   3.920   4.609
 1542SOL    HW1 4650   0.545   3.915   4.709
 1542SOL    HW2 4651   0.552   4.016   4.580
 1543SOL     OW 4652   1.795   4.790   4.597
 1543SOL    HW1 4653   1.733   4.775   4.521
 1543SOL    HW2 4654   1.743   4.801   4.682
 1544SOL     OW 4655   0.321   4.667   3.966
 1544SOL    HW1 4656   0.403   4.706   3.924
 1544SOL    HW2 4657   0.294   4.585   3.917
 1545SOL     OW 4658   1.458   4.459   4.452
 1545SOL    HW1 4659   1.453   4.394   4.527
 1545SOL    HW2 4660   1.538   4.518   4.465
 1546SOL     OW 4661   1.111   5.500   3.961
 1546SOL    HW1 4662   1.051   5.438   4.011
 1546SOL    HW2 4663   1.142   5.456   3.876
 1547SOL     OW 4664   1.632   5.101   3.805
 1547SOL    HW1 4665   1.600   5.195   3.795
 1547SOL    HW2 4666   1.556   5.038   3.793
 1548SOL     OW 4667   1.400   3.831   4.150
 1548SOL    HW1 4668   1.376   3.794   4.060
 1548SOL    HW2 4669   1.499   3.847   4.154
 1549SOL     OW 4670   0.382   4.424   4.204
 1549SOL    HW1 4671   0.427   4.334   4.201
 1549SOL    HW2 4672   0.288   4.413   4.237
 1550SOL     OW 4673   0.614   3.846   3.841
 1550SOL    HW1 4674   0.712   3.824   3.848
 1550SOL    HW2 4675   0.583   3.829   3.748
 1551SOL     OW 4676   0.922   4.227   4.623
 1551SOL    HW1 4677   0.897   4.218   4.527
 1551SOL    HW2 4678   0.970   4.145   4.654
 1552SOL     OW 4679   0.539   3.788   4.236
 1552SOL    HW1 4680   0.458   3.789   4.294
 1552SOL    HW2 4681   0.542   3.871   4.181
 1553SOL     OW 4682   1.434   4.912   3.765
 1553SOL    HW1 4683   1.466   4.836   3.822
 1553SOL    HW2 4684   1.342   4.939   3.795
 1554SOL     OW 4685   0.297   3.759   3.895
 1554SOL    HW1 4686   0.346   3.843   3.874
 1554SOL    HW2 4687   0.359   3.694   3.940
 1555SOL     OW 4688   0.935   3.960   4.204
 1555SOL    HW1 4689   0.887   4.001   4.126
 1555SOL    HW2 4690   1.034   3.958   4.185
 1556SOL     OW 4691   1.227   5.294   4.517
 1556SOL    HW1 4692   1.248   5.368   4.452
 1556SOL    HW2 4693   1.295   5.294   4.590
 1557SOL     OW 4694   0.459   4.876   4.465
 1557SOL    HW1 4695   0.388   4.849   4.530
 1557SOL    HW2 4696   0.433   4.848   4.372
 1558SOL     OW 4697   1.032   4.273   3.740
 1558SOL    HW1 4698   0.991   4.355   3.701
 1558SOL    HW2 4699   1.096   4.299   3.813
 1559SOL     OW 4700   0.561   3.946   4.871
 1559SOL    HW1 4701   0.599   3.862   4.908
 1559SOL    HW2 4702   0.473   3.965   4.915
 1560SOL     OW 4703   0.866   4.178   4.366
 1560SOL    HW1 4704   0.834   4.250   4.304
 1560SOL    HW2 4705   0.890   4.097   4.313
 1561SOL     OW 4706   1.017   3.763   4.477
 1561SOL    HW1 4707   0.945   3.768   4.408
 1561SOL    HW2 4708   0.993   3.694   4.546
 1562SOL     OW 4709   1.429   4.897   4.591
 1562SOL    HW1 4710   1.374   4.813   4.584
 1562SOL    HW2 4711   1.455   4.926   4.499
 1563SOL     OW 4712   1.466   4.314   4.716
 1563SOL    HW1 4713   1.436   4.219   4.723
 1563SOL    HW2 4714   1.539   4.330   4.782
 1564SOL     OW 4715   1.857   4.557   4.101
 1564SOL    HW1 4716   1.899   4.493   4.165
 1564SOL    HW2 4717   1.819   4.506   4.023
 1565SOL     OW 4718   1.664   5.004   4.381
 1565SOL    HW1 4719   1.763   5.012   4.395
 1565SOL    HW2 4720   1.619   5.088   4.412
 1566SOL     OW 4721   1.390   4.299   3.802
 1566SOL    HW1 4722   1.336   4.278   3.883
 1566SOL    HW2 4723   1.481   4.258   3.811
 1567SOL     OW 4724   0.527   3.980   4.052
 1567SOL    HW1 4725   0.554   3.921   3.977
 1567SOL    HW2 4726   0.527   4.075   4.021
 1568SOL     OW 4727   1.754   4.947   5.312
 1568SOL    HW1 4728   1.845   4.908   5.299
 1568SOL    HW2 4729   1.762   5.043   5.336
 1569SOL     OW 4730   1.064   5.071   5.064
 1569SOL    HW1 4731   0.984   5.048   5.119
 1569SOL    HW2 4732   1.147   5.045   5.113
 1570SOL     OW 4733   1.111   4.919   4.824
 1570SOL    HW1 4734   1.071   4.963   4.905
 1570SOL    HW2 4735   1.070   4.956   4.741
 1571SOL     OW 4736   1.638   4.823   4.803
 1571SOL    HW1 4737   1.643   4.904   4.862
 1571SOL    HW2 4738   1.552   4.825   4.752
 1572SOL     OW 4739   0.705   4.774   4.092
 1572SOL    HW1 4740   0.691   4.781   4.191
 1572SOL    HW2 4741   0.789   4.723   4.074
 1573SOL     OW 4742   0.410   4.537   4.975
 1573SOL    HW1 4743   0.496   4.549   5.025
 1573SOL    HW2 4744   0.368   4.450   5.002
 1574SOL     OW 4745   1.274   4.110   4.986
 1574SOL    HW1 4746   1.295   4.184   5.050
 1574SOL    HW2 4747   1.185   4.127   4.943
 1575SOL     OW 4748   0.064   5.288   5.055
 1575SOL    HW1 4749   0.018   5.370   5.021
 1575SOL    HW2 4750   0.162   5.307   5.064
 1576SOL     OW 4751   0.367   4.824   4.225
 1576SOL    HW1 4752   0.360   4.907   4.169
 1576SOL    HW2 4753   0.371   4.744   4.165
 1577SOL     OW 4754   0.566   4.261   4.589
 1577SOL    HW1 4755   0.578   4.327   4.515
 1577SOL    HW2 4756   0.612   4.295   4.672
 1578SOL     OW 4757   1.252   5.072   4.112
 1578SOL    HW1 4758   1.302   5.149   4.152
 1578SOL    HW2 4759   1.157   5.074   4.144
 1579SOL     OW 4760   1.272   5.169   4.866
 1579SOL    HW1 4761   1.319   5.182   4.953
 1579SOL    HW2 4762   1.206   5.095   4.875
 1580SOL     OW 4763   1.582   4.363   4.196
 1580SOL    HW1 4764   1.551   4.424   4.269
 1580SOL    HW2 4765   1.632   4.415   4.127
 1581SOL     OW 4766   0.504   3.774   5.464
 1581SOL    HW1 4767   0.462   3.717   5.394
 1581SOL    HW2 4768   0.438   3.843   5.496
 1582SOL     OW 4769   0.573   4.594   4.753
 1582SOL    HW1 4770   0.617   4.683   4.744
 1582SOL    HW2 4771   0.510   4.594   4.830
 1583SOL     OW 4772   1.360   4.586   4.769
 1583SOL    HW1 4773   1.285   4.586   4.703
 1583SOL    HW2 4774   1.397   4.494   4.778
 1584SOL     OW 4775   1.209   4.249   3.999
 1584SOL    HW1 4776   1.222   4.165   4.053
 1584SOL    HW2 4777   1.180   4.323   4.059
 1585SOL     OW 4778   0.307   3.937   4.955
 1585SOL    HW1 4779   0.284   3.974   5.045
 1585SOL    HW2 4780   0.277   3.842   4.949
 1586SOL     OW 4781   0.037   5.034   5.006
 1586SOL    HW1 4782   0.090   4.985   5.074
 1586SOL    HW2 4783   0.059   5.132   5.011
 1587SOL     OW 4784   0.732   4.358   4.788
 1587SOL    HW1 4785   0.791   4.332   4.712
 1587SOL    HW2 4786   0.704   4.454   4.777
 1588SOL     OW 4787   0.307   3.787   4.342
 1588SOL    HW1 4788   0.296   3.881   4.375
 1588SOL    HW2 4789   0.302   3.724   4.419
 1589SOL     OW 4790   1.622   4.091   4.098
 1589SOL    HW1 4791   1.624   4.015   4.162
 1589SOL    HW2 4792   1.574   4.168   4.138
 1590SOL     OW 4793   1.023   4.490   4.690
 1590SOL    HW1 4794   1.038   4.511   4.786
 1590SOL    HW2 4795   0.993   4.395   4.681
 1591SOL     OW 4796   1.540   3.998   3.849
 1591SOL    HW1 4797   1.479   3.923   3.872
 1591SOL    HW2 4798   1.562   4.050   3.932
 1592SOL     OW 4799   1.303   4.562   3.766
 1592SOL    HW1 4800   1.337   4.469   3.781
 1592SOL    HW2 4801   1.321   4.589   3.671
 1593SOL     OW 4802   0.319   4.534   4.673
 1593SOL    HW1 4803   0.412   4.570   4.678
 1593SOL    HW2 4804   0.313   4.449   4.725
 1594SOL     OW 4805   0.339   4.233   4.730
 1594SOL    HW1 4806   0.287   4.150   4.713
 1594SOL    HW2 4807   0.416   4.238   4.666
 1595SOL     OW 4808   1.160   3.931   5.201
 1595SOL    HW1 4809   1.160   3.995   5.278
 1595SOL    HW2 4810   1.188   3.979   5.118
 1596SOL     OW 4811   0.008   5.050   3.924
 1596SOL    HW1 4812  -0.085   5.071   3.893
 1596SOL    HW2 4813   0.018   4.951   3.937
 1597SOL     OW 4814   1.002   4.520   4.962
 1597SOL    HW1 4815   1.043   4.488   5.048
 1597SOL    HW2 4816   0.906   4.493   4.959
 1598SOL     OW 4817   0.040   4.268   4.838
 1598SOL    HW1 4818   0.125   4.235   4.797
 1598SOL    HW2 4819   0.053   4.283   4.936
 1599SOL     OW 4820   0.815   4.296   4.049
 1599SOL    HW1 4821   0.822   4.207   4.003
 1599SOL    HW2 4822   0.721   4.330   4.041
 1600SOL     OW 4823   1.657   4.328   4.930
 1600SOL    HW1 4824   1.619   4.259   4.992
 1600SOL    HW2 4825   1.739   4.292   4.886
 1601SOL     OW 4826   0.671   4.188   4.993
 1601SOL    HW1 4827   0.637   4.099   4.963
 1601SOL    HW2 4828   0.697   4.242   4.913
 1602SOL     OW 4829   0.473   4.224   3.915
 1602SOL    HW1 4830   0.534   4.304   3.919
 1602SOL    HW2 4831   0.378   4.255   3.922
 1603SOL     OW 4832   0.159   4.861   5.190
 1603SOL    HW1 4833   0.181   4.800   5.266
 1603SOL    HW2 4834   0.169   4.812   5.104
 1604SOL     OW 4835   1.347   4.783   4.958
 1604SOL    HW1 4836   1.371   4.720   4.884
 1604SOL    HW2 4837   1.257   4.823   4.940
 1605SOL     OW 4838   1.302   4.579   4.033
 1605SOL    HW1 4839   1.216   4.548   4.075
 1605SOL    HW2 4840   1.298   4.565   3.934
 1606SOL     OW 4841   0.083   4.982   4.746
 1606SOL    HW1 4842   0.078   4.981   4.846
 1606SOL    HW2 4843   0.000   4.941   4.708
 1607SOL     OW 4844   1.726   3.859   4.247
 1607SOL    HW1 4845   1.799   3.842   4.180
 1607SOL    HW2 4846   1.695   3.772   4.285
 1608SOL     OW 4847   1.280   4.651   4.396
 1608SOL    HW1 4848   1.340   4.570   4.398
 1608SOL    HW2 4849   1.320   4.720   4.336
 1609SOL     OW 4850   0.830   4.997   5.146
 1609SOL    HW1 4851   0.825   5.030   5.241
 1609SOL    HW2 4852   0.744   5.016   5.100
 1610SOL     OW 4853   1.841   3.899   4.687
 1610SOL    HW1 4854   1.880   3.814   4.651
 1610SOL    HW2 4855   1.743   3.901   4.668
 1611SOL     OW 4856   0.263   4.050   4.444
 1611SOL    HW1 4857   0.184   4.101   4.410
 1611SOL    HW2 4858   0.254   4.035   4.542
 1612SOL     OW 4859   0.822   4.726   5.096
 1612SOL    HW1 4860   0.862   4.725   5.004
 1612SOL    HW2 4861   0.832   4.818   5.136
 1613SOL     OW 4862   0.916   4.634   4.015
 1613SOL    HW1 4863   0.979   4.672   3.947
 1613SOL    HW2 4864   0.956   4.551   4.054
 1614SOL     OW 4865   0.372   5.012   5.214
 1614SOL    HW1 4866   0.359   5.105   5.180
 1614SOL    HW2 4867   0.288   4.960   5.201
 1615SOL     OW 4868   1.614   5.016   5.013
 1615SOL    HW1 4869   1.674   5.019   5.093
 1615SOL    HW2 4870   1.539   5.080   5.026
 1616SOL     OW 4871   1.039   4.822   4.420
 1616SOL    HW1 4872   0.969   4.775   4.474
 1616SOL    HW2 4873   1.098   4.754   4.377
 1617SOL     OW 4874   1.014   3.960   4.695
 1617SOL    HW1 4875   1.006   3.924   4.602
 1617SOL    HW2 4876   1.012   3.884   4.760
 1618SOL     OW 4877   1.709   4.109   5.105
 1618SOL    HW1 4878   1.782   4.178   5.109
 1618SOL    HW2 4879   1.737   4.034   5.046
 1619SOL     OW 4880   0.672   3.927   5.213
 1619SOL    HW1 4881   0.762   3.911   5.173
 1619SOL    HW2 4882   0.680   3.932   5.312
 1620SOL     OW 4883   0.075   4.069   3.757
 1620SOL    HW1 4884  -0.017   4.041   3.728
 1620SOL    HW2 4885   0.106   4.146   3.701
 1621SOL     OW 4886   0.072   3.890   4.042
 1621SOL    HW1 4887   0.055   3.973   3.988
 1621SOL    HW2 4888   0.162   3.853   4.020
 1622SOL     OW 4889   0.613   4.566   5.155
 1622SOL    HW1 4890   0.669   4.647   5.138
 1622SOL    HW2 4891   0.672   4.486   5.158
 1623SOL     OW 4892   1.674   4.607   4.978
 1623SOL    HW1 4893   1.647   4.518   4.941
 1623SOL    HW2 4894   1.675   4.675   4.905
 1624SOL     OW 4895   1.225   4.049   4.173
 1624SOL    HW1 4896   1.290   3.975   4.162
 1624SOL    HW2 4897   1.245   4.099   4.257
 1625SOL     OW 4898   0.594   4.469   4.376
 1625SOL    HW1 4899   0.644   4.554   4.357
 1625SOL    HW2 4900   0.506   4.471   4.328
 1626SOL     OW 4901   1.730   4.658   5.241
 1626SOL    HW1 4902   1.768   4.749   5.256
 1626SOL    HW2 4903   1.722   4.641   5.142
 1627SOL     OW 4904   0.859   5.098   3.740
 1627SOL    HW1 4905   0.813   5.113   3.828
 1627SOL    HW2 4906   0.903   5.183   3.710
 1628SOL     OW 4907   0.859   4.680   4.585
 1628SOL    HW1 4908   0.913   4.611   4.633
 1628SOL    HW2 4909   0.827   4.749   4.651
 1629SOL     OW 4910   1.083   4.708   3.811
 1629SOL    HW1 4911   1.060   4.761   3.729
 1629SOL    HW2 4912   1.164   4.652   3.792
 1630SOL     OW 4913   0.079   4.964   4.377
 1630SOL    HW1 4914   0.078   4.917   4.465
 1630SOL    HW2 4915   0.161   4.936   4.326
 1631SOL     OW 4916   1.824   3.916   4.951
 1631SOL    HW1 4917   1.820   3.826   4.995
 1631SOL    HW2 4918   1.827   3.905   4.852
 1632SOL     OW 4919   0.428   4.148   4.244
 1632SOL    HW1 4920   0.458   4.076   4.182
 1632SOL    HW2 4921   0.389   4.108   4.327
 1633SOL     OW 4922   1.705   5.211   4.828
 1633SOL    HW1 4923   1.612   5.186   4.801
 1633SOL    HW2 4924   1.731   5.161   4.910
 1634SOL     OW 4925   0.317   4.271   5.004
 1634SOL    HW1 4926   0.355   4.212   5.076
 1634SOL    HW2 4927   0.357   4.245   4.916
 1635SOL     OW 4928   1.424   3.938   4.836
 1635SOL    HW1 4929   1.476   3.873   4.891
 1635SOL    HW2 4930   1.375   4.001   4.897
 1636SOL     OW 4931   1.001   3.758   4.878
 1636SOL    HW1 4932   0.938   3.686   4.847
 1636SOL    HW2 4933   1.094   3.722   4.878
 1637SOL     OW 4934   0.770   5.054   4.025
 1637SOL    HW1 4935   0.724   4.967   4.042
 1637SOL    HW2 4936   0.861   5.051   4.066
 1638SOL     OW 4937   1.352   3.776   3.892
 1638SOL    HW1 4938   1.387   3.735   3.808
 1638SOL    HW2 4939   1.262   3.738   3.912
 1639SOL     OW 4940   1.300   4.177   4.415
 1639SOL    HW1 4941   1.241   4.257   4.419
 1639SOL    HW2 4942   1.315   4.142   4.508
 1640SOL     OW 4943   1.593   3.945   4.606
 1640SOL    HW1 4944   1.509   3.944   4.660
 1640SOL    HW2 4945   1.595   4.028   4.550
 1641SOL     OW 4946   0.039   4.801   4.024
 1641SOL    HW1 4947   0.138   4.790   4.015
 1641SOL    HW2 4948  -0.001   4.715   4.056
 1642SOL     OW 4949   2.092   0.628   0.113
 1642SOL    HW1 4950   1.999   0.626   0.150
 1642SOL    HW2 4951   2.093   0.589   0.021
 1643SOL     OW 4952   2.087   0.275   0.996
 1643SOL    HW1 4953   2.122   0.258   1.088
 1643SOL    HW2 4954   1.999   0.230   0.984
 1644SOL     OW 4955   1.881   0.368   0.647
 1644SOL    HW1 4956   1.799   0.411   0.686
 1644SOL    HW2 4957   1.853   0.295   0.584
 1645SOL     OW 4958   2.431   1.275   1.165
 1645SOL    HW1 4959   2.338   1.268   1.128
 1645SOL    HW2 4960   2.442   1.364   1.209
 1646SOL     OW 4961   3.417   1.511   0.703
 1646SOL    HW1 4962   3.360   1.495   0.784
 1646SOL    HW2 4963   3.358   1.521   0.623
 1647SOL     OW 4964   2.997   0.703   0.717
 1647SOL    HW1 4965   3.054   0.781   0.692
 1647SOL    HW2 4966   2.937   0.729   0.793
 1648SOL     OW 4967   3.617   0.607   0.231
 1648SOL    HW1 4968   3.605   0.594   0.132
 1648SOL    HW2 4969   3.587   0.526   0.280
 1649SOL     OW 4970   2.630   1.144   1.023
 1649SOL    HW1 4971   2.552   1.161   1.083
 1649SOL    HW2 4972   2.664   1.231   0.987
 1650SOL     OW 4973   2.712   0.798   1.823
 1650SOL    HW1 4974   2.708   0.874   1.888
 1650SOL    HW2 4975   2.734   0.834   1.732
 1651SOL     OW 4976   2.547   1.012   0.665
 1651SOL    HW1 4977   2.616   0.996   0.735
 1651SOL    HW2 4978   2.474   1.069   0.703
 1652SOL     OW 4979   2.548   1.161   1.803
 1652SOL    HW1 4980   2.608   1.240   1.817
 1652SOL    HW2 4981   2.462   1.192   1.762
 1653SOL     OW 4982   2.197   1.435   1.061
 1653SOL    HW1 4983   2.119   1.404   1.008
 1653SOL    HW2 4984   2.255   1.493   1.004
 1654SOL     OW 4985   3.322   1.505   1.339
 1654SOL    HW1 4986   3.346   1.599   1.365
 1654SOL    HW2 4987   3.306   1.451   1.421
 1655SOL     OW 4988   2.300   0.392   1.499
 1655SOL    HW1 4989   2.382   0.336   1.508
 1655SOL    HW2 4990   2.219   0.334   1.503
 1656SOL     OW 4991   3.465   0.447   0.737
 1656SOL    HW1 4992   3.391   0.493   0.687
 1656SOL    HW2 4993   3.516   0.515   0.790
 1657SOL     OW 4994   2.093   1.713   0.483
 1657SOL    HW1 4995   2.127   1.790   0.537
 1657SOL    HW2 4996   2.137   1.713   0.393
 1658SOL     OW 4997   2.989   1.341   1.690
 1658SOL    HW1 4998   3.036   1.341   1.778
 1658SOL    HW2 4999   2.941   1.254   1.679
 1659SOL     OW 5000   2.092   1.434   0.538
 1659SOL    HW1 5001   2.066   1.530   0.538
 1659SOL    HW2 5002   2.021   1.380   0.583
 1660SOL     OW 5003   2.102   1.091   0.886
 1660SOL    HW1 5004   2.116   1.007   0.938
 1660SOL    HW2 5005   2.047   1.155   0.941
 1661SOL     OW 5006   2.482   1.786   1.439
 1661SOL    HW1 5007   2.390   1.769   1.474
 1661SOL    HW2 5008   2.510   1.878   1.465
 1662SOL     OW 5009   2.468   0.964   0.123
 1662SOL    HW1 5010   2.475   1.048   0.069
 1662SOL    HW2 5011   2.514   0.977   0.211
 1663SOL     OW 5012   3.456   0.114   1.480
 1663SOL    HW1 5013   3.438   0.181   1.408
 1663SOL    HW2 5014   3.453   0.160   1.569
 1664SOL     OW 5015   1.984   0.643   0.563
 1664SOL    HW1 5016   1.939   0.555   0.580
 1664SOL    HW2 5017   1.983   0.697   0.647
 1665SOL     OW 5018   3.704   1.767   0.359
 1665SOL    HW1 5019   3.758   1.738   0.439
 1665SOL    HW2 5020   3.734   1.857   0.330
 1666SOL     OW 5021   1.889   1.596   0.117
 1666SOL    HW1 5022   1.870   1.500   0.138
 1666SOL    HW2 5023   1.856   1.654   0.192
 1667SOL     OW 5024   3.551   0.922   0.612
 1667SOL    HW1 5025   3.646   0.893   0.620
 1667SOL    HW2 5026   3.543   0.987   0.537
 1668SOL     OW 5027   3.503   1.108   0.432
 1668SOL    HW1 5028   3.589   1.110   0.380
 1668SOL    HW2 5029   3.517   1.155   0.520
 1669SOL     OW 5030   1.975   0.737   1.597
 1669SOL    HW1 5031   2.063   0.724   1.642
 1669SOL    HW2 5032   1.962   0.834   1.575
 1670SOL     OW 5033   2.475   1.365   0.726
 1670SOL    HW1 5034   2.426   1.278   0.735
 1670SOL    HW2 5035   2.452   1.408   0.639
 1671SOL     OW 5036   3.155   1.228   1.423
 1671SOL    HW1 5037   3.192   1.155   1.365
 1671SOL    HW2 5038   3.207   1.233   1.508
 1672SOL     OW 5039   2.671   0.004   0.502
 1672SOL    HW1 5040   2.711   0.095   0.493
 1672SOL    HW2 5041   2.571   0.012   0.508
 1673SOL     OW 5042   2.059   0.976   1.264
 1673SOL    HW1 5043   2.148   0.931   1.250
 1673SOL    HW2 5044   1.986   0.911   1.245
 1674SOL     OW 5045   3.387   0.999   0.190
 1674SOL    HW1 5046   3.324   0.923   0.203
 1674SOL    HW2 5047   3.435   1.017   0.276
 1675SOL     OW 5048   3.049   1.792   1.616
 1675SOL    HW1 5049   3.073   1.852   1.540
 1675SOL    HW2 5050   3.056   1.697   1.586
 1676SOL     OW 5051   2.179   0.251   1.801
 1676SOL    HW1 5052   2.250   0.322   1.807
 1676SOL    HW2 5053   2.091   0.290   1.829
 1677SOL     OW 5054   3.328   1.417   0.953
 1677SOL    HW1 5055   3.269   1.423   1.033
 1677SOL    HW2 5056   3.313   1.329   0.907
 1678SOL     OW 5057   3.529   1.714   0.572
 1678SOL    HW1 5058   3.488   1.691   0.484
 1678SOL    HW2 5059   3.511   1.640   0.637
 1679SOL     OW 5060   2.460   0.729   0.270
 1679SOL    HW1 5061   2.484   0.798   0.202
 1679SOL    HW2 5062   2.382   0.762   0.324
 1680SOL     OW 5063   3.143   0.345   0.944
 1680SOL    HW1 5064   3.057   0.295   0.931
 1680SOL    HW2 5065   3.205   0.291   1.000
 1681SOL     OW 5066   3.438   1.662   0.307
 1681SOL    HW1 5067   3.527   1.708   0.310
 1681SOL    HW2 5068   3.417   1.638   0.212
 1682SOL     OW 5069   2.669   0.605   1.465
 1682SOL    HW1 5070   2.622   0.602   1.554
 1682SOL    HW2 5071   2.618   0.550   1.399
 1683SOL     OW 5072   3.256   0.469   1.674
 1683SOL    HW1 5073   3.236   0.512   1.762
 1683SOL    HW2 5074   3.334   0.407   1.683
 1684SOL     OW 5075   2.835   0.890   1.572
 1684SOL    HW1 5076   2.881   0.806   1.543
 1684SOL    HW2 5077   2.779   0.924   1.497
 1685SOL     OW 5078   2.853   0.410   1.242
 1685SOL    HW1 5079   2.776   0.444   1.296
 1685SOL    HW2 5080   2.819   0.359   1.163
 1686SOL     OW 5081   2.903   0.701   0.429
 1686SOL    HW1 5082   2.929   0.697   0.525
 1686SOL    HW2 5083   2.818   0.650   0.415
 1687SOL     OW 5084   1.938   0.811   0.789
 1687SOL    HW1 5085   2.037   0.799   0.798
 1687SOL    HW2 5086   1.914   0.906   0.810
 1688SOL     OW 5087   1.992   1.821   1.571
 1688SOL    HW1 5088   1.982   1.806   1.670
 1688SOL    HW2 5089   1.906   1.857   1.535
 1689SOL     OW 5090   2.727   0.348   0.195
 1689SOL    HW1 5091   2.786   0.411   0.146
 1689SOL    HW2 5092   2.746   0.254   0.166
 1690SOL     OW 5093   3.581   0.585   1.831
 1690SOL    HW1 5094   3.555   0.674   1.795
 1690SOL    HW2 5095   3.579   0.517   1.758
 1691SOL     OW 5096   3.224   1.144   0.545
 1691SOL    HW1 5097   3.307   1.115   0.497
 1691SOL    HW2 5098   3.175   1.211   0.489
 1692SOL     OW 5099   2.412   0.196   0.885
 1692SOL    HW1 5100   2.407   0.191   0.985
 1692SOL    HW2 5101   2.414   0.292   0.856
 1693SOL     OW 5102   2.870   1.456   0.477
 1693SOL    HW1 5103   2.824   1.528   0.425
 1693SOL    HW2 5104   2.866   1.476   0.575
 1694SOL     OW 5105   2.213   1.801   0.853
 1694SOL    HW1 5106   2.263   1.715   0.859
 1694SOL    HW2 5107   2.278   1.878   0.850
 1695SOL     OW 5108   3.657   1.066   0.873
 1695SOL    HW1 5109   3.595   1.051   0.797
 1695SOL    HW2 5110   3.605   1.077   0.958
 1696SOL     OW 5111   3.089   1.550   1.506
 1696SOL    HW1 5112   3.095   1.473   1.570
 1696SOL    HW2 5113   3.037   1.524   1.426
 1697SOL     OW 5114   2.183   0.943   0.242
 1697SOL    HW1 5115   2.265   0.982   0.200
 1697SOL    HW2 5116   2.156   0.861   0.193
 1698SOL     OW 5117   3.320   0.735   0.728
 1698SOL    HW1 5118   3.315   0.670   0.803
 1698SOL    HW2 5119   3.400   0.794   0.741
 1699SOL     OW 5120   2.323   1.266   1.727
 1699SOL    HW1 5121   2.273   1.267   1.641
 1699SOL    HW2 5122   2.260   1.248   1.803
 1700SOL     OW 5123   2.973   1.776   0.237
 1700SOL    HW1 5124   2.913   1.714   0.287
 1700SOL    HW2 5125   3.004   1.732   0.152
 1701SOL     OW 5126   2.064   0.285   1.498
 1701SOL    HW1 5127   1.984   0.345   1.485
 1701SOL    HW2 5128   2.054   0.236   1.584
 1702SOL     OW 5129   3.494   1.377   0.081
 1702SOL    HW1 5130   3.462   1.471   0.071
 1702SOL    HW2 5131   3.418   1.314   0.069
 1703SOL     OW 5132   2.326   1.743   0.323
 1703SOL    HW1 5133   2.359   1.782   0.409
 1703SOL    HW2 5134   2.402   1.736   0.258
 1704SOL     OW 5135   3.262   0.107   0.426
 1704SOL    HW1 5136   3.238   0.070   0.336
 1704SOL    HW2 5137   3.361   0.123   0.430
 1705SOL     OW 5138   2.111   1.785   1.241
 1705SOL    HW1 5139   2.168   1.720   1.291
 1705SOL    HW2 5140   2.095   1.752   1.148
 1706SOL     OW 5141   2.802   1.698   0.904
 1706SOL    HW1 5142   2.882   1.641   0.925
 1706SOL    HW2 5143   2.753   1.658   0.827
 1707SOL     OW 5144   2.244   0.700   0.480
 1707SOL    HW1 5145   2.289   0.610   0.477
 1707SOL    HW2 5146   2.150   0.689   0.513
 1708SOL     OW 5147   3.409   0.222   1.729
 1708SOL    HW1 5148   3.404   0.259   1.821
 1708SOL    HW2 5149   3.337   0.153   1.717
 1709SOL     OW 5150   2.476   0.122   0.117
 1709SOL    HW1 5151   2.574   0.100   0.124
 1709SOL    HW2 5152   2.445   0.105   0.024
 1710SOL     OW 5153   2.643   0.264   1.749
 1710SOL    HW1 5154   2.710   0.203   1.792
 1710SOL    HW2 5155   2.570   0.283   1.814
 1711SOL     OW 5156   2.750   1.514   1.195
 1711SOL    HW1 5157   2.727   1.489   1.101
 1711SOL    HW2 5158   2.811   1.445   1.234
 1712SOL     OW 5159   3.213   0.590   1.433
 1712SOL    HW1 5160   3.241   0.547   1.518
 1712SOL    HW2 5161   3.238   0.686   1.434
 1713SOL     OW 5162   2.665   1.402   0.924
 1713SOL    HW1 5163   2.755   1.416   0.882
 1713SOL    HW2 5164   2.594   1.404   0.853
 1714SOL     OW 5165   2.784   0.503   0.899
 1714SOL    HW1 5166   2.759   0.494   0.803
 1714SOL    HW2 5167   2.832   0.421   0.930
 1715SOL     OW 5168   2.401   0.064   0.512
 1715SOL    HW1 5169   2.320   0.065   0.570
 1715SOL    HW2 5170   2.404   0.147   0.457
 1716SOL     OW 5171   3.296   1.188   0.041
 1716SOL    HW1 5172   3.328   1.112   0.098
 1716SOL    HW2 5173   3.204   1.215   0.071
 1717SOL     OW 5174   2.159   0.035   0.171
 1717SOL    HW1 5175   2.208   0.119   0.150
 1717SOL    HW2 5176   2.221  -0.030   0.216
 1718SOL     OW 5177   2.797   0.236   0.480
 1718SOL    HW1 5178   2.749   0.277   0.402
 1718SOL    HW2 5179   2.896   0.234   0.461
 1719SOL     OW 5180   2.938   0.683   1.464
 1719SOL    HW1 5181   2.858   0.622   1.467
 1719SOL    HW2 5182   3.019   0.630   1.440
 1720SOL     OW 5183   3.089   1.570   0.793
 1720SOL    HW1 5184   3.110   1.644   0.728
 1720SOL    HW2 5185   3.157   1.570   0.866
 1721SOL     OW 5186   2.321   1.152   0.741
 1721SOL    HW1 5187   2.250   1.125   0.806
 1721SOL    HW2 5188   2.295   1.124   0.648
 1722SOL     OW 5189   3.133   1.797   0.591
 1722SOL    HW1 5190   3.177   1.861   0.527
 1722SOL    HW2 5191   3.083   1.849   0.661
 1723SOL     OW 5192   2.894   0.549   0.016
 1723SOL    HW1 5193   2.853   0.631  -0.023
 1723SOL    HW2 5194   2.958   0.575   0.089
 1724SOL     OW 5195   1.940   0.556   1.386
 1724SOL    HW1 5196   2.032   0.555   1.345
 1724SOL    HW2 5197   1.934   0.630   1.453
 1725SOL     OW 5198   2.423   0.222   1.147
 1725SOL    HW1 5199   2.461   0.138   1.184
 1725SOL    HW2 5200   2.335   0.241   1.191
 1726SOL     OW 5201   2.728   0.454   0.642
 1726SOL    HW1 5202   2.696   0.526   0.580
 1726SOL    HW2 5203   2.752   0.373   0.589
 1727SOL     OW 5204   2.879   0.039   0.753
 1727SOL    HW1 5205   2.807   0.044   0.684
 1727SOL    HW2 5206   2.855  -0.030   0.822
 1728SOL     OW 5207   3.291   1.173   0.867
 1728SOL    HW1 5208   3.236   1.089   0.860
 1728SOL    HW2 5209   3.317   1.202   0.775
 1729SOL     OW 5210   3.328   0.590   0.992
 1729SOL    HW1 5211   3.298   0.495   0.999
 1729SOL    HW2 5212   3.401   0.606   1.058
 1730SOL     OW 5213   3.719   0.833   0.377
 1730SOL    HW1 5214   3.761   0.769   0.441
 1730SOL    HW2 5215   3.681   0.782   0.299
 1731SOL     OW 5216   2.350   1.385   0.174
 1731SOL    HW1 5217   2.263   1.370   0.221
 1731SOL    HW2 5218   2.333   1.411   0.079
 1732SOL     OW 5219   3.526   1.280   0.657
 1732SOL    HW1 5220   3.625   1.288   0.671
 1732SOL    HW2 5221   3.481   1.364   0.688
 1733SOL     OW 5222   3.252   0.575   0.078
 1733SOL    HW1 5223   3.198   0.554   0.159
 1733SOL    HW2 5224   3.343   0.534   0.087
 1734SOL     OW 5225   2.389   0.256   0.328
 1734SOL    HW1 5226   2.416   0.197   0.253
 1734SOL    HW2 5227   2.389   0.351   0.297
 1735SOL     OW 5228   3.616   1.223   1.588
 1735SOL    HW1 5229   3.707   1.184   1.575
 1735SOL    HW2 5230   3.624   1.319   1.612
 1736SOL     OW 5231   2.926   1.347   1.340
 1736SOL    HW1 5232   2.846   1.324   1.395
 1736SOL    HW2 5233   3.009   1.321   1.389
 1737SOL     OW 5234   3.454   1.629   1.625
 1737SOL    HW1 5235   3.481   1.663   1.535
 1737SOL    HW2 5236   3.533   1.591   1.671
 1738SOL     OW 5237   2.973   1.195   1.100
 1738SOL    HW1 5238   2.933   1.239   1.181
 1738SOL    HW2 5239   2.932   1.232   1.017
 1739SOL     OW 5240   3.500   1.099   1.079
 1739SOL    HW1 5241   3.505   1.180   1.138
 1739SOL    HW2 5242   3.414   1.101   1.028
 1740SOL     OW 5243   2.777   0.089   1.402
 1740SOL    HW1 5244   2.802   0.069   1.307
 1740SOL    HW2 5245   2.849   0.145   1.444
 1741SOL     OW 5246   2.842   1.116   1.719
 1741SOL    HW1 5247   2.743   1.122   1.729
 1741SOL    HW2 5248   2.865   1.036   1.663
 1742SOL     OW 5249   2.567   1.050   0.368
 1742SOL    HW1 5250   2.553   1.057   0.467
 1742SOL    HW2 5251   2.651   0.999   0.350
 1743SOL     OW 5252   2.272   0.813   1.251
 1743SOL    HW1 5253   2.358   0.825   1.301
 1743SOL    HW2 5254   2.230   0.726   1.278
 1744SOL     OW 5255   3.136   0.386   1.262
 1744SOL    HW1 5256   3.157   0.460   1.326
 1744SOL    HW2 5257   3.047   0.403   1.219
 1745SOL     OW 5258   1.926   1.564   1.331
 1745SOL    HW1 5259   1.880   1.646   1.297
 1745SOL    HW2 5260   2.024   1.583   1.340
 1746SOL     OW 5261   2.229   1.100   0.501
 1746SOL    HW1 5262   2.222   1.183   0.445
 1746SOL    HW2 5263   2.233   1.020   0.441
 1747SOL     OW 5264   2.428   0.537   0.865
 1747SOL    HW1 5265   2.440   0.603   0.791
 1747SOL    HW2 5266   2.474   0.571   0.948
 1748SOL     OW 5267   3.114   1.348   0.388
 1748SOL    HW1 5268   3.164   1.425   0.428
 1748SOL    HW2 5269   3.019   1.350   0.420
 1749SOL     OW 5270   3.134   1.445   1.142
 1749SOL    HW1 5271   3.181   1.458   1.229
 1749SOL    HW2 5272   3.068   1.371   1.151
 1750SOL     OW 5273   3.444   0.639   0.472
 1750SOL    HW1 5274   3.413   0.700   0.545
 1750SOL    HW2 5275   3.494   0.691   0.403
 1751SOL     OW 5276   2.216   1.510   1.329
 1751SOL    HW1 5277   2.195   1.466   1.242
 1751SOL    HW2 5278   2.313   1.536   1.332
 1752SOL     OW 5279   2.264   0.751   1.598
 1752SOL    HW1 5280   2.332   0.806   1.551
 1752SOL    HW2 5281   2.304   0.663   1.625
 1753SOL     OW 5282   3.449   0.779   1.670
 1753SOL    HW1 5283   3.357   0.817   1.665
 1753SOL    HW2 5284   3.509   0.826   1.605
 1754SOL     OW 5285   2.875   0.105   1.770
 1754SOL    HW1 5286   2.881   0.190   1.718
 1754SOL    HW2 5287   2.907   0.029   1.713
 1755SOL     OW 5288   2.366   0.050   1.740
 1755SOL    HW1 5289   2.324  -0.007   1.670
 1755SOL    HW2 5290   2.300   0.119   1.772
 1756SOL     OW 5291   2.435   0.870   1.029
 1756SOL    HW1 5292   2.479   0.959   1.020
 1756SOL    HW2 5293   2.372   0.870   1.106
 1757SOL     OW 5294   3.222   0.862   1.045
 1757SOL    HW1 5295   3.147   0.862   0.979
 1757SOL    HW2 5296   3.259   0.770   1.054
 1758SOL     OW 5297   3.071   0.525   0.275
 1758SOL    HW1 5298   3.084   0.441   0.329
 1758SOL    HW2 5299   3.042   0.599   0.335
 1759SOL     OW 5300   2.169   0.213   1.231
 1759SOL    HW1 5301   2.146   0.250   1.321
 1759SOL    HW2 5302   2.139   0.118   1.225
 1760SOL     OW 5303   1.899   1.310   1.282
 1760SOL    HW1 5304   1.952   1.261   1.350
 1760SOL    HW2 5305   1.921   1.408   1.287
 1761SOL     OW 5306   2.594   0.634   1.064
 1761SOL    HW1 5307   2.653   0.608   0.988
 1761SOL    HW2 5308   2.566   0.730   1.053
 1762SOL     OW 5309   3.590   0.935   1.854
 1762SOL    HW1 5310   3.544   0.928   1.765
 1762SOL    HW2 5311   3.528   0.979   1.920
 1763SOL     OW 5312   2.169   0.063   0.618
 1763SOL    HW1 5313   2.158   0.157   0.651
 1763SOL    HW2 5314   2.164   0.000   0.695
 1764SOL     OW 5315   3.484   0.367   0.374
 1764SOL    HW1 5316   3.486   0.291   0.438
 1764SOL    HW2 5317   3.436   0.444   0.414
 1765SOL     OW 5318   2.885   0.766   0.966
 1765SOL    HW1 5319   2.900   0.787   1.062
 1765SOL    HW2 5320   2.855   0.671   0.957
 1766SOL     OW 5321   2.842   1.573   1.700
 1766SOL    HW1 5322   2.822   1.617   1.612
 1766SOL    HW2 5323   2.881   1.482   1.684
 1767SOL     OW 5324   3.721   1.518   1.605
 1767SOL    HW1 5325   3.735   1.545   1.510
 1767SOL    HW2 5326   3.804   1.540   1.658
 1768SOL     OW 5327   2.212   0.898   1.804
 1768SOL    HW1 5328   2.288   0.942   1.852
 1768SOL    HW2 5329   2.247   0.851   1.722
 1769SOL     OW 5330   3.402   0.274   0.125
 1769SOL    HW1 5331   3.341   0.199   0.148
 1769SOL    HW2 5332   3.424   0.326   0.208
 1770SOL     OW 5333   3.165   0.838   0.042
 1770SOL    HW1 5334   3.199   0.745   0.057
 1770SOL    HW2 5335   3.183   0.865  -0.053
 1771SOL     OW 5336   2.930   1.333   0.849
 1771SOL    HW1 5337   2.937   1.249   0.794
 1771SOL    HW2 5338   2.992   1.402   0.813
 1772SOL     OW 5339   2.181   0.810   0.949
 1772SOL    HW1 5340   2.274   0.846   0.954
 1772SOL    HW2 5341   2.175   0.725   1.001
 1773SOL     OW 5342   2.201   0.509   1.006
 1773SOL    HW1 5343   2.149   0.426   0.989
 1773SOL    HW2 5344   2.278   0.514   0.942
 1774SOL     OW 5345   3.000   0.380   1.678
 1774SOL    HW1 5346   2.955   0.443   1.742
 1774SOL    HW2 5347   3.093   0.411   1.661
 1775SOL     OW 5348   3.022   0.207   1.477
 1775SOL    HW1 5349   3.022   0.271   1.554
 1775SOL    HW2 5350   3.050   0.255   1.394
 1776SOL     OW 5351   1.950   1.801   0.927
 1776SOL    HW1 5352   1.908   1.715   0.900
 1776SOL    HW2 5353   2.044   1.804   0.893
 1777SOL     OW 5354   2.366   1.568   0.910
 1777SOL    HW1 5355   2.432   1.642   0.919
 1777SOL    HW2 5356   2.410   1.489   0.868
 1778SOL     OW 5357   2.864   0.796   1.238
 1778SOL    HW1 5358   2.905   0.764   1.324
 1778SOL    HW2 5359   2.768   0.769   1.235
 1779SOL     OW 5360   1.902   0.544   1.114
 1779SOL    HW1 5361   1.987   0.511   1.073
 1779SOL    HW2 5362   1.915   0.559   1.212
 1780SOL     OW 5363   2.051   0.520   1.722
 1780SOL    HW1 5364   2.110   0.480   1.652
 1780SOL    HW2 5365   1.993   0.591   1.681
 1781SOL     OW 5366   3.231   0.950   1.660
 1781SOL    HW1 5367   3.270   1.039   1.680
 1781SOL    HW2 5368   3.241   0.930   1.563
 1782SOL     OW 5369   2.677   0.572   0.325
 1782SOL    HW1 5370   2.684   0.483   0.279
 1782SOL    HW2 5371   2.583   0.606   0.317
 1783SOL     OW 5372   3.519   0.604   1.206
 1783SOL    HW1 5373   3.481   0.535   1.268
 1783SOL    HW2 5374   3.601   0.568   1.162
 1784SOL     OW 5375   2.114   1.564   1.744
 1784SOL    HW1 5376   2.084   1.621   1.820
 1784SOL    HW2 5377   2.107   1.467   1.770
 1785SOL     OW 5378   2.533   0.464   1.269
 1785SOL    HW1 5379   2.499   0.375   1.239
 1785SOL    HW2 5380   2.559   0.518   1.189
 1786SOL     OW 5381   2.792   1.678   1.465
 1786SOL    HW1 5382   2.768   1.660   1.370
 1786SOL    HW2 5383   2.822   1.772   1.475
 1787SOL     OW 5384   2.335   0.500   0.191
 1787SOL    HW1 5385   2.396   0.580   0.195
 1787SOL    HW2 5386   2.240   0.531   0.198
 1788SOL     OW 5387   2.021   1.137   1.466
 1788SOL    HW1 5388   2.043   1.076   1.542
 1788SOL    HW2 5389   2.031   1.088   1.380
 1789SOL     OW 5390   3.209   1.059   1.234
 1789SOL    HW1 5391   3.233   0.996   1.160
 1789SOL    HW2 5392   3.119   1.099   1.216
 1790SOL     OW 5393   3.164   0.855   0.309
 1790SOL    HW1 5394   3.078   0.824   0.351
 1790SOL    HW2 5395   3.160   0.841   0.210
 1791SOL     OW 5396   3.621   1.747   1.154
 1791SOL    HW1 5397   3.682   1.777   1.081
 1791SOL    HW2 5398   3.583   1.658   1.132
 1792SOL     OW 5399   3.114   1.731   1.128
 1792SOL    HW1 5400   3.198   1.736   1.074
 1792SOL    HW2 5401   3.091   1.635   1.146
 1793SOL     OW 5402   1.945   1.258   1.022
 1793SOL    HW1 5403   1.940   1.257   1.122
 1793SOL    HW2 5404   1.862   1.217   0.984
 1794SOL     OW 5405   2.550   1.662   1.716
 1794SOL    HW1 5406   2.494   1.743   1.725
 1794SOL    HW2 5407   2.602   1.666   1.630
 1795SOL     OW 5408   2.765   0.086   0.133
 1795SOL    HW1 5409   2.816   0.087   0.047
 1795SOL    HW2 5410   2.821   0.044   0.204
 1796SOL     OW 5411   3.588   0.135   0.523
 1796SOL    HW1 5412   3.661   0.118   0.456
 1796SOL    HW2 5413   3.557   0.048   0.561
 1797SOL     OW 5414   3.250   1.573   0.477
 1797SOL    HW1 5415   3.317   1.585   0.403
 1797SOL    HW2 5416   3.210   1.662   0.500
 1798SOL     OW 5417   1.992   1.794   1.851
 1798SOL    HW1 5418   1.951   1.720   1.904
 1798SOL    HW2 5419   2.056   1.845   1.909
 1799SOL     OW 5420   3.142   0.927   0.672
 1799SOL    HW1 5421   3.202   0.846   0.674
 1799SOL    HW2 5422   3.182   0.996   0.612
 1800SOL     OW 5423   2.692   1.273   1.422
 1800SOL    HW1 5424   2.687   1.306   1.517
 1800SOL    HW2 5425   2.606   1.292   1.376
 1801SOL     OW 5426   2.534   1.616   0.154
 1801SOL    HW1 5427   2.543   1.626   0.055
 1801SOL    HW2 5428   2.494   1.527   0.175
 1802SOL     OW 5429   3.512   1.720   1.394
 1802SOL    HW1 5430   3.565   1.730   1.310
 1802SOL    HW2 5431   3.485   1.810   1.428
 1803SOL     OW 5432   3.703   0.175   0.963
 1803SOL    HW1 5433   3.742   0.090   0.927
 1803SOL    HW2 5434   3.605   0.177   0.944
 1804SOL     OW 5435   2.125   0.326   0.720
 1804SOL    HW1 5436   2.046   0.377   0.686
 1804SOL    HW2 5437   2.116   0.311   0.818
 1805SOL     OW 5438   3.056   1.612   0.031
 1805SOL    HW1 5439   3.062   1.519   0.068
 1805SOL    HW2 5440   2.997   1.612  -0.049
 1806SOL     OW 5441   2.684   1.002   1.372
 1806SOL    HW1 5442   2.724   1.001   1.280
 1806SOL    HW2 5443   2.694   1.094   1.412
 1807SOL     OW 5444   2.778   0.910   0.291
 1807SOL    HW1 5445   2.841   0.948   0.223
 1807SOL    HW2 5446   2.818   0.827   0.330
 1808SOL     OW 5447   3.366   1.607   0.044
 1808SOL    HW1 5448   3.274   1.644   0.051
 1808SOL    HW2 5449   3.404   1.627  -0.046
 1809SOL     OW 5450   2.234   1.288   1.490
 1809SOL    HW1 5451   2.221   1.381   1.456
 1809SOL    HW2 5452   2.150   1.236   1.477
 1810SOL     OW 5453   3.476   1.292   1.289
 1810SOL    HW1 5454   3.536   1.295   1.369
 1810SOL    HW2 5455   3.401   1.356   1.302
 1811SOL     OW 5456   2.901   1.098   0.696
 1811SOL    HW1 5457   2.831   1.051   0.750
 1811SOL    HW2 5458   2.960   1.030   0.653
 1812SOL     OW 5459   2.876   0.236   0.971
 1812SOL    HW1 5460   2.868   0.200   0.878
 1812SOL    HW2 5461   2.874   0.160   1.036
 1813SOL     OW 5462   2.452   1.487   0.491
 1813SOL    HW1 5463   2.494   1.429   0.421
 1813SOL    HW2 5464   2.408   1.566   0.447
 1814SOL     OW 5465   3.571   0.385   1.381
 1814SOL    HW1 5466   3.644   0.454   1.385
 1814SOL    HW2 5467   3.599   0.310   1.322
 1815SOL     OW 5468   2.117   1.348   0.290
 1815SOL    HW1 5469   2.021   1.349   0.263
 1815SOL    HW2 5470   2.129   1.401   0.374
 1816SOL     OW 5471   1.967   1.013   1.726
 1816SOL    HW1 5472   1.890   0.980   1.780
 1816SOL    HW2 5473   2.052   0.983   1.768
 1817SOL     OW 5474   2.534   0.203   1.489
 1817SOL    HW1 5475   2.624   0.187   1.449
 1817SOL    HW2 5476   2.542   0.208   1.588
 1818SOL     OW 5477   1.937   0.345   0.033
 1818SOL    HW1 5478   1.845   0.317   0.004
 1818SOL    HW2 5479   1.968   0.422  -0.023
 1819SOL     OW 5480   3.302   0.856   1.398
 1819SOL    HW1 5481   3.245   0.908   1.335
 1819SOL    HW2 5482   3.398   0.868   1.374
 1820SOL     OW 5483   1.934   0.166   0.318
 1820SOL    HW1 5484   1.917   0.249   0.264
 1820SOL    HW2 5485   2.024   0.129   0.296
 1821SOL     OW 5486   3.045   1.335   0.119
 1821SOL    HW1 5487   2.946   1.324   0.121
 1821SOL    HW2 5488   3.079   1.350   0.212
 1822SOL     OW 5489   2.475   0.842   1.431
 1822SOL    HW1 5490   2.531   0.923   1.414
 1822SOL    HW2 5491   2.534   0.762   1.434
 1823SOL     OW 5492   3.355   1.767   0.959
 1823SOL    HW1 5493   3.388   1.831   0.890
 1823SOL    HW2 5494   3.421   1.761   1.034
 1824SOL     OW 5495   2.578   0.565   1.708
 1824SOL    HW1 5496   2.597   0.630   1.782
 1824SOL    HW2 5497   2.638   0.485   1.717
 1825SOL     OW 5498   3.312   1.220   1.633
 1825SOL    HW1 5499   3.303   1.210   1.732
 1825SOL    HW2 5500   3.408   1.213   1.607
 1826SOL     OW 5501   2.252   1.741   1.560
 1826SOL    HW1 5502   2.161   1.782   1.558
 1826SOL    HW2 5503   2.245   1.647   1.592
 1827SOL     OW 5504   3.536   0.883   1.254
 1827SOL    HW1 5505   3.509   0.794   1.217
 1827SOL    HW2 5506   3.537   0.951   1.181
 1828SOL     OW 5507   3.087   0.325   0.449
 1828SOL    HW1 5508   3.152   0.251   0.438
 1828SOL    HW2 5509   3.107   0.375   0.533
 1829SOL     OW 5510   2.456   0.745   0.652
 1829SOL    HW1 5511   2.506   0.830   0.633
 1829SOL    HW2 5512   2.368   0.747   0.604
 1830SOL     OW 5513   3.639   0.342   1.642
 1830SOL    HW1 5514   3.622   0.373   1.548
 1830SOL    HW2 5515   3.555   0.305   1.680
 1831SOL     OW 5516   3.592   0.934   1.517
 1831SOL    HW1 5517   3.630   1.025   1.532
 1831SOL    HW2 5518   3.584   0.917   1.418
 1832SOL     OW 5519   2.721   1.374   0.016
 1832SOL    HW1 5520   2.675   1.389   0.104
 1832SOL    HW2 5521   2.765   1.459  -0.014
 1833SOL     OW 5522   2.523   1.790   0.953
 1833SOL    HW1 5523   2.477   1.878   0.940
 1833SOL    HW2 5524   2.622   1.802   0.946
 1834SOL     OW 5525   2.721   0.956   0.861
 1834SOL    HW1 5526   2.775   0.887   0.909
 1834SOL    HW2 5527   2.689   1.025   0.927
 1835SOL     OW 5528   2.945   0.984   0.087
 1835SOL    HW1 5529   2.922   1.037   0.005
 1835SOL    HW2 5530   3.026   0.928   0.068
 1836SOL     OW 5531   3.723   1.569   0.851
 1836SOL    HW1 5532   3.652   1.557   0.781
 1836SOL    HW2 5533   3.724   1.490   0.911
 1837SOL     OW 5534   2.083   1.314   1.844
 1837SOL    HW1 5535   2.018   1.241   1.823
 1837SOL    HW2 5536   2.087   1.328   1.942
 1838SOL     OW 5537   1.941   1.240   0.653
 1838SOL    HW1 5538   1.940   1.193   0.741
 1838SOL    HW2 5539   2.023   1.212   0.602
 1839SOL     OW 5540   2.534   1.391   1.624
 1839SOL    HW1 5541   2.456   1.341   1.662
 1839SOL    HW2 5542   2.531   1.486   1.655
 1840SOL     OW 5543   3.686   0.192   1.227
 1840SOL    HW1 5544   3.682   0.102   1.271
 1840SOL    HW2 5545   3.689   0.181   1.128
 1841SOL     OW 5546   2.290   0.424   0.520
 1841SOL    HW1 5547   2.320   0.352   0.458
 1841SOL    HW2 5548   2.251   0.384   0.603
 1842SOL     OW 5549   3.567   1.487   1.104
 1842SOL    HW1 5550   3.474   1.462   1.077
 1842SOL    HW2 5551   3.593   1.437   1.186
 1843SOL     OW 5552   2.179   0.547   1.280
 1843SOL    HW1 5553   2.217   0.488   1.352
 1843SOL    HW2 5554   2.219   0.521   1.192
 1844SOL     OW 5555   2.674   1.586   0.687
 1844SOL    HW1 5556   2.706   1.596   0.593
 1844SOL    HW2 5557   2.595   1.524   0.689
 1845SOL     OW 5558   3.286   0.214   1.112
 1845SOL    HW1 5559   3.338   0.149   1.167
 1845SOL    HW2 5560   3.237   0.277   1.173
 1846SOL     OW 5561   2.863   0.034   1.154
 1846SOL    HW1 5562   2.800  -0.038   1.123
 1846SOL    HW2 5563   2.956  -0.002   1.154
 1847SOL     OW 5564   2.632   1.330   0.301
 1847SOL    HW1 5565   2.586   1.243   0.318
 1847SOL    HW2 5566   2.723   1.327   0.342
 1848SOL     OW 5567   2.480   1.567   1.284
 1848SOL    HW1 5568   2.475   1.649   1.341
 1848SOL    HW2 5569   2.569   1.564   1.239
 1849SOL     OW 5570   3.214   0.052   0.168
 1849SOL    HW1 5571   3.249   0.011   0.084
 1849SOL    HW2 5572   3.124   0.014   0.188
 1850SOL     OW 5573   3.162   0.453   0.691
 1850SOL    HW1 5574   3.103   0.533   0.695
 1850SOL    HW2 5575   3.177   0.418   0.784
 1851SOL     OW 5576   3.455   0.221   0.882
 1851SOL    HW1 5577   3.371   0.220   0.936
 1851SOL    HW2 5578   3.457   0.304   0.826
 1852SOL     OW 5579   1.901   1.077   0.300
 1852SOL    HW1 5580   2.000   1.066   0.291
 1852SOL    HW2 5581   1.861   0.991   0.332
 1853SOL     OW 5582   2.737   1.646   0.337
 1853SOL    HW1 5583   2.660   1.611   0.283
 1853SOL    HW2 5584   2.705   1.717   0.399
 1854SOL     OW 5585   2.092   0.628   1.975
 1854SOL    HW1 5586   1.999   0.626   2.012
 1854SOL    HW2 5587   2.093   0.589   1.883
 1855SOL     OW 5588   2.087   0.275   2.858
 1855SOL    HW1 5589   2.122   0.258   2.950
 1855SOL    HW2 5590   1.999   0.230   2.846
 1856SOL     OW 5591   1.881   0.368   2.509
 1856SOL    HW1 5592   1.799   0.411   2.548
 1856SOL    HW2 5593   1.853   0.295   2.446
 1857SOL     OW 5594   2.431   1.275   3.027
 1857SOL    HW1 5595   2.338   1.268   2.990
 1857SOL    HW2 5596   2.442   1.364   3.071
 1858SOL     OW 5597   3.417   1.511   2.565
 1858SOL    HW1 5598   3.360   1.495   2.646
 1858SOL    HW2 5599   3.358   1.521   2.485
 1859SOL     OW 5600   2.997   0.703   2.579
 1859SOL    HW1 5601   3.054   0.781   2.554
 1859SOL    HW2 5602   2.937   0.729   2.655
 1860SOL     OW 5603   3.617   0.607   2.093
 1860SOL    HW1 5604   3.605   0.594   1.994
 1860SOL    HW2 5605   3.587   0.526   2.142
 1861SOL     OW 5606   2.630   1.144   2.885
 1861SOL    HW1 5607   2.552   1.161   2.945
 1861SOL    HW2 5608   2.664   1.231   2.849
 1862SOL     OW 5609   2.712   0.798   3.685
 1862SOL    HW1 5610   2.708   0.874   3.750
 1862SOL    HW2 5611   2.734   0.834   3.594
 1863SOL     OW 5612   2.547   1.012   2.527
 1863SOL    HW1 5613   2.616   0.996   2.597
 1863SOL    HW2 5614   2.474   1.069   2.565
 1864SOL     OW 5615   2.548   1.161   3.665
 1864SOL    HW1 5616   2.608   1.240   3.679
 1864SOL    HW2 5617   2.462   1.192   3.624
 1865SOL     OW 5618   2.197   1.435   2.923
 1865SOL    HW1 5619   2.119   1.404   2.870
 1865SOL    HW2 5620   2.255   1.493   2.866
 1866SOL     OW 5621   3.322   1.505   3.201
 1866SOL    HW1 5622   3.346   1.599   3.227
 1866SOL    HW2 5623   3.306   1.451   3.283
 1867SOL     OW 5624   2.300   0.392   3.361
 1867SOL    HW1 5625   2.382   0.336   3.370
 1867SOL    HW2 5626   2.219   0.334   3.365
 1868SOL     OW 5627   3.465   0.447   2.599
 1868SOL    HW1 5628   3.391   0.493   2.549
 1868SOL    HW2 5629   3.516   0.515   2.652
 1869SOL     OW 5630   2.093   1.713   2.345
 1869SOL    HW1 5631   2.127   1.790   2.399
 1869SOL    HW2 5632   2.137   1.713   2.255
 1870SOL     OW 5633   2.989   1.341   3.552
 1870SOL    HW1 5634   3.036   1.341   3.640
 1870SOL    HW2 5635   2.941   1.254   3.541
 1871SOL     OW 5636   2.092   1.434   2.400
 1871SOL    HW1 5637   2.066   1.530   2.400
 1871SOL    HW2 5638   2.021   1.380   2.445
 1872SOL     OW 5639   2.102   1.091   2.748
 1872SOL    HW1 5640   2.116   1.007   2.800
 1872SOL    HW2 5641   2.047   1.155   2.803
 1873SOL     OW 5642   2.482   1.786   3.301
 1873SOL    HW1 5643   2.390   1.769   3.336
 1873SOL    HW2 5644   2.510   1.878   3.327
 1874SOL     OW 5645   2.468   0.964   1.985
 1874SOL    HW1 5646   2.475   1.048   1.931
 1874SOL    HW2 5647   2.514   0.977   2.073
 1875SOL     OW 5648   3.456   0.114   3.342
 1875SOL    HW1 5649   3.438   0.181   3.270
 1875SOL    HW2 5650   3.453   0.160   3.431
 1876SOL     OW 5651   1.984   0.643   2.425
 1876SOL    HW1 5652   1.939   0.555   2.442
 1876SOL    HW2 5653   1.983   0.697   2.509
 1877SOL     OW 5654   3.704   1.767   2.221
 1877SOL    HW1 5655   3.758   1.738   2.301
 1877SOL    HW2 5656   3.734   1.857   2.192
 1878SOL     OW 5657   1.889   1.596   1.979
 1878SOL    HW1 5658   1.870   1.500   2.000
 1878SOL    HW2 5659   1.856   1.654   2.054
 1879SOL     OW 5660   3.551   0.922   2.474
 1879SOL    HW1 5661   3.646   0.893   2.482
 1879SOL    HW2 5662   3.543   0.987   2.399
 1880SOL     OW 5663   3.503   1.108   2.294
 1880SOL    HW1 5664   3.589   1.110   2.242
 1880SOL    HW2 5665   3.517   1.155   2.382
 1881SOL     OW 5666   1.975   0.737   3.459
 1881SOL    HW1 5667   2.063   0.724   3.504
 1881SOL    HW2 5668   1.962   0.834   3.437
 1882SOL     OW 5669   2.475   1.365   2.588
 1882SOL    HW1 5670   2.426   1.278   2.597
 1882SOL    HW2 5671   2.452   1.408   2.501
 1883SOL     OW 5672   3.155   1.228   3.285
 1883SOL    HW1 5673   3.192   1.155   3.227
 1883SOL    HW2 5674   3.207   1.233   3.370
 1884SOL     OW 5675   2.671   0.004   2.364
 1884SOL    HW1 5676   2.711   0.095   2.355
 1884SOL    HW2 5677   2.571   0.012   2.370
 1885SOL     OW 5678   2.059   0.976   3.126
 1885SOL    HW1 5679   2.148   0.931   3.112
 1885SOL    HW2 5680   1.986   0.911   3.107
 1886SOL     OW 5681   3.387   0.999   2.052
 1886SOL    HW1 5682   3.324   0.923   2.065
 1886SOL    HW2 5683   3.435   1.017   2.138
 1887SOL     OW 5684   3.049   1.792   3.478
 1887SOL    HW1 5685   3.073   1.852   3.402
 1887SOL    HW2 5686   3.056   1.697   3.448
 1888SOL     OW 5687   2.179   0.251   3.663
 1888SOL    HW1 5688   2.250   0.322   3.669
 1888SOL    HW2 5689   2.091   0.290   3.691
 1889SOL     OW 5690   3.328   1.417   2.815
 1889SOL    HW1 5691   3.269   1.423   2.895
 1889SOL    HW2 5692   3.313   1.329   2.769
 1890SOL     OW 5693   3.529   1.714   2.434
 1890SOL    HW1 5694   3.488   1.691   2.346
 1890SOL    HW2 5695   3.511   1.640   2.499
 1891SOL     OW 5696   2.460   0.729   2.132
 1891SOL    HW1 5697   2.484   0.798   2.064
 1891SOL    HW2 5698   2.382   0.762   2.186
 1892SOL     OW 5699   3.143   0.345   2.806
 1892SOL    HW1 5700   3.057   0.295   2.793
 1892SOL    HW2 5701   3.205   0.291   2.862
 1893SOL     OW 5702   3.438   1.662   2.169
 1893SOL    HW1 5703   3.527   1.708   2.172
 1893SOL    HW2 5704   3.417   1.638   2.074
 1894SOL     OW 5705   2.669   0.605   3.327
 1894SOL    HW1 5706   2.622   0.602   3.416
 1894SOL    HW2 5707   2.618   0.550   3.261
 1895SOL     OW 5708   3.256   0.469   3.536
 1895SOL    HW1 5709   3.236   0.512   3.624
 1895SOL    HW2 5710   3.334   0.407   3.545
 1896SOL     OW 5711   2.835   0.890   3.434
 1896SOL    HW1 5712   2.881   0.806   3.405
 1896SOL    HW2 5713   2.779   0.924   3.359
 1897SOL     OW 5714   2.853   0.410   3.104
 1897SOL    HW1 5715   2.776   0.444   3.158
 1897SOL    HW2 5716   2.819   0.359   3.025
 1898SOL     OW 5717   2.903   0.701   2.291
 1898SOL    HW1 5718   2.929   0.697   2.387
 1898SOL    HW2 5719   2.818   0.650   2.277
 1899SOL     OW 5720   1.938   0.811   2.651
 1899SOL    HW1 5721   2.037   0.799   2.660
 1899SOL    HW2 5722   1.914   0.906   2.672
 1900SOL     OW 5723   1.992   1.821   3.433
 1900SOL    HW1 5724   1.982   1.806   3.532
 1900SOL    HW2 5725   1.906   1.857   3.397
 1901SOL     OW 5726   2.727   0.348   2.057
 1901SOL    HW1 5727   2.786   0.411   2.008
 1901SOL    HW2 5728   2.746   0.254   2.028
 1902SOL     OW 5729   3.581   0.585   3.693
 1902SOL    HW1 5730   3.555   0.674   3.657
 1902SOL    HW2 5731   3.579   0.517   3.620
 1903SOL     OW 5732   3.224   1.144   2.407
 1903SOL    HW1 5733   3.307   1.115   2.359
 1903SOL    HW2 5734   3.175   1.211   2.351
 1904SOL     OW 5735   2.412   0.196   2.747
 1904SOL    HW1 5736   2.407   0.191   2.847
 1904SOL    HW2 5737   2.414   0.292   2.718
 1905SOL     OW 5738   2.870   1.456   2.339
 1905SOL    HW1 5739   2.824   1.528   2.287
 1905SOL    HW2 5740   2.866   1.476   2.437
 1906SOL     OW 5741   2.213   1.801   2.715
 1906SOL    HW1 5742   2.263   1.715   2.721
 1906SOL    HW2 5743   2.278   1.878   2.712
 1907SOL     OW 5744   3.657   1.066   2.735
 1907SOL    HW1 5745   3.595   1.051   2.659
 1907SOL    HW2 5746   3.605   1.077   2.820
 1908SOL     OW 5747   3.089   1.550   3.368
 1908SOL    HW1 5748   3.095   1.473   3.432
 1908SOL    HW2 5749   3.037   1.524   3.288
 1909SOL     OW 5750   2.183   0.943   2.104
 1909SOL    HW1 5751   2.265   0.982   2.062
 1909SOL    HW2 5752   2.156   0.861   2.055
 1910SOL     OW 5753   3.320   0.735   2.590
 1910SOL    HW1 5754   3.315   0.670   2.665
 1910SOL    HW2 5755   3.400   0.794   2.603
 1911SOL     OW 5756   2.323   1.266   3.589
 1911SOL    HW1 5757   2.273   1.267   3.503
 1911SOL    HW2 5758   2.260   1.248   3.665
 1912SOL     OW 5759   2.973   1.776   2.099
 1912SOL    HW1 5760   2.913   1.714   2.149
 1912SOL    HW2 5761   3.004   1.732   2.014
 1913SOL     OW 5762   2.064   0.285   3.360
 1913SOL    HW1 5763   1.984   0.345   3.347
 1913SOL    HW2 5764   2.054   0.236   3.446
 1914SOL     OW 5765   3.494   1.377   1.943
 1914SOL    HW1 5766   3.462   1.471   1.933
 1914SOL    HW2 5767   3.418   1.314   1.931
 1915SOL     OW 5768   2.326   1.743   2.185
 1915SOL    HW1 5769   2.359   1.782   2.271
 1915SOL    HW2 5770   2.402   1.736   2.120
 1916SOL     OW 5771   3.262   0.107   2.288
 1916SOL    HW1 5772   3.238   0.070   2.198
 1916SOL    HW2 5773   3.361   0.123   2.292
 1917SOL     OW 5774   2.111   1.785   3.103
 1917SOL    HW1 5775   2.168   1.720   3.153
 1917SOL    HW2 5776   2.095   1.752   3.010
 1918SOL     OW 5777   2.802   1.698   2.766
 1918SOL    HW1 5778   2.882   1.641   2.787
 1918SOL    HW2 5779   2.753   1.658   2.689
 1919SOL     OW 5780   2.244   0.700   2.342
 1919SOL    HW1 5781   2.289   0.610   2.339
 1919SOL    HW2 5782   2.150   0.689   2.375
 1920SOL     OW 5783   3.409   0.222   3.591
 1920SOL    HW1 5784   3.404   0.259   3.683
 1920SOL    HW2 5785   3.337   0.153   3.579
 1921SOL     OW 5786   2.476   0.122   1.979
 1921SOL    HW1 5787   2.574   0.100   1.986
 1921SOL    HW2 5788   2.445   0.105   1.886
 1922SOL     OW 5789   2.643   0.264   3.611
 1922SOL    HW1 5790   2.710   0.203   3.654
 1922SOL    HW2 5791   2.570   0.283   3.676
 1923SOL     OW 5792   2.750   1.514   3.057
 1923SOL    HW1 5793   2.727   1.489   2.963
 1923SOL    HW2 5794   2.811   1.445   3.096
 1924SOL     OW 5795   3.213   0.590   3.295
 1924SOL    HW1 5796   3.241   0.547   3.380
 1924SOL    HW2 5797   3.238   0.686   3.296
 1925SOL     OW 5798   2.665   1.402   2.786
 1925SOL    HW1 5799   2.755   1.416   2.744
 1925SOL    HW2 5800   2.594   1.404   2.715
 1926SOL     OW 5801   2.784   0.503   2.761
 1926SOL    HW1 5802   2.759   0.494   2.665
 1926SOL    HW2 5803   2.832   0.421   2.792
 1927SOL     OW 5804   2.401   0.064   2.374
 1927SOL    HW1 5805   2.320   0.065   2.432
 1927SOL    HW2 5806   2.404   0.147   2.319
 1928SOL     OW 5807   3.296   1.188   1.903
 1928SOL    HW1 5808   3.328   1.112   1.960
 1928SOL    HW2 5809   3.204   1.215   1.933
 1929SOL     OW 5810   2.159   0.035   2.033
 1929SOL    HW1 5811   2.208   0.119   2.012
 1929SOL    HW2 5812   2.221  -0.030   2.078
 1930SOL     OW 5813   2.797   0.236   2.342
 1930SOL    HW1 5814   2.749   0.277   2.264
 1930SOL    HW2 5815   2.896   0.234   2.323
 1931SOL     OW 5816   2.938   0.683   3.326
 1931SOL    HW1 5817   2.858   0.622   3.329
 1931SOL    HW2 5818   3.019   0.630   3.302
 1932SOL     OW 5819   3.089   1.570   2.655
 1932SOL    HW1 5820   3.110   1.644   2.590
 1932SOL    HW2 5821   3.157   1.570   2.728
 1933SOL     OW 5822   2.321   1.152   2.603
 1933SOL    HW1 5823   2.250   1.125   2.668
 1933SOL    HW2 5824   2.295   1.124   2.510
 1934SOL     OW 5825   3.133   1.797   2.453
 1934SOL    HW1 5826   3.177   1.861   2.389
 1934SOL    HW2 5827   3.083   1.849   2.523
 1935SOL     OW 5828   2.894   0.549   1.878
 1935SOL    HW1 5829   2.853   0.631   1.839
 1935SOL    HW2 5830   2.958   0.575   1.951
 1936SOL     OW 5831   1.940   0.556   3.248
 1936SOL    HW1 5832   2.032   0.555   3.207
 1936SOL    HW2 5833   1.934   0.630   3.315
 1937SOL     OW 5834   2.423   0.222   3.009
 1937SOL    HW1 5835   2.461   0.138   3.046
 1937SOL    HW2 5836   2.335   0.241   3.053
 1938SOL     OW 5837   2.728   0.454   2.504
 1938SOL    HW1 5838   2.696   0.526   2.442
 1938SOL    HW2 5839   2.752   0.373   2.451
 1939SOL     OW 5840   2.879   0.039   2.615
 1939SOL    HW1 5841   2.807   0.044   2.546
 1939SOL    HW2 5842   2.855  -0.030   2.684
 1940SOL     OW 5843   3.291   1.173   2.729
 1940SOL    HW1 5844   3.236   1.089   2.722
 1940SOL    HW2 5845   3.317   1.202   2.637
 1941SOL     OW 5846   3.328   0.590   2.854
 1941SOL    HW1 5847   3.298   0.495   2.861
 1941SOL    HW2 5848   3.401   0.606   2.920
 1942SOL     OW 5849   3.719   0.833   2.239
 1942SOL    HW1 5850   3.761   0.769   2.303
 1942SOL    HW2 5851   3.681   0.782   2.161
 1943SOL     OW 5852   2.350   1.385   2.036
 1943SOL    HW1 5853   2.263   1.370   2.083
 1943SOL    HW2 5854   2.333   1.411   1.941
 1944SOL     OW 5855   3.526   1.280   2.519
 1944SOL    HW1 5856   3.625   1.288   2.533
 1944SOL    HW2 5857   3.481   1.364   2.550
 1945SOL     OW 5858   3.252   0.575   1.940
 1945SOL    HW1 5859   3.198   0.554   2.021
 1945SOL    HW2 5860   3.343   0.534   1.949
 1946SOL     OW 5861   2.389   0.256   2.190
 1946SOL    HW1 5862   2.416   0.197   2.115
 1946SOL    HW2 5863   2.389   0.351   2.159
 1947SOL     OW 5864   3.616   1.223   3.450
 1947SOL    HW1 5865   3.707   1.184   3.437
 1947SOL    HW2 5866   3.624   1.319   3.474
 1948SOL     OW 5867   2.926   1.347   3.202
 1948SOL    HW1 5868   2.846   1.324   3.257
 1948SOL    HW2 5869   3.009   1.321   3.251
 1949SOL     OW 5870   3.454   1.629   3.487
 1949SOL    HW1 5871   3.481   1.663   3.397
 1949SOL    HW2 5872   3.533   1.591   3.533
 1950SOL     OW 5873   2.973   1.195   2.962
 1950SOL    HW1 5874   2.933   1.239   3.043
 1950SOL    HW2 5875   2.932   1.232   2.879
 1951SOL     OW 5876   3.500   1.099   2.941
 1951SOL    HW1 5877   3.505   1.180   3.000
 1951SOL    HW2 5878   3.414   1.101   2.890
 1952SOL     OW 5879   2.777   0.089   3.264
 1952SOL    HW1 5880   2.802   0.069   3.169
 1952SOL    HW2 5881   2.849   0.145   3.306
 1953SOL     OW 5882   2.842   1.116   3.581
 1953SOL    HW1 5883   2.743   1.122   3.591
 1953SOL    HW2 5884   2.865   1.036   3.525
 1954SOL     OW 5885   2.567   1.050   2.230
 1954SOL    HW1 5886   2.553   1.057   2.329
 1954SOL    HW2 5887   2.651   0.999   2.212
 1955SOL     OW 5888   2.272   0.813   3.113
 1955SOL    HW1 5889   2.358   0.825   3.163
 1955SOL    HW2 5890   2.230   0.726   3.140
 1956SOL     OW 5891   3.136   0.386   3.124
 1956SOL    HW1 5892   3.157   0.460   3.188
 1956SOL    HW2 5893   3.047   0.403   3.081
 1957SOL     OW 5894   1.926   1.564   3.193
 1957SOL    HW1 5895   1.880   1.646   3.159
 1957SOL    HW2 5896   2.024   1.583   3.202
 1958SOL     OW 5897   2.229   1.100   2.363
 1958SOL    HW1 5898   2.222   1.183   2.307
 1958SOL    HW2 5899   2.233   1.020   2.303
 1959SOL     OW 5900   2.428   0.537   2.727
 1959SOL    HW1 5901   2.440   0.603   2.653
 1959SOL    HW2 5902   2.474   0.571   2.810
 1960SOL     OW 5903   3.114   1.348   2.250
 1960SOL    HW1 5904   3.164   1.425   2.290
 1960SOL    HW2 5905   3.019   1.350   2.282
 1961SOL     OW 5906   3.134   1.445   3.004
 1961SOL    HW1 5907   3.181   1.458   3.091
 1961SOL    HW2 5908   3.068   1.371   3.013
 1962SOL     OW 5909   3.444   0.639   2.334
 1962SOL    HW1 5910   3.413   0.700   2.407
 1962SOL    HW2 5911   3.494   0.691   2.265
 1963SOL     OW 5912   2.216   1.510   3.191
 1963SOL    HW1 5913   2.195   1.466   3.104
 1963SOL    HW2 5914   2.313   1.536   3.194
 1964SOL     OW 5915   2.264   0.751   3.460
 1964SOL    HW1 5916   2.332   0.806   3.413
 1964SOL    HW2 5917   2.304   0.663   3.487
 1965SOL     OW 5918   3.449   0.779   3.532
 1965SOL    HW1 5919   3.357   0.817   3.527
 1965SOL    HW2 5920   3.509   0.826   3.467
 1966SOL     OW 5921   2.875   0.105   3.632
 1966SOL    HW1 5922   2.881   0.190   3.580
 1966SOL    HW2 5923   2.907   0.029   3.575
 1967SOL     OW 5924   2.366   0.050   3.602
 1967SOL    HW1 5925   2.324  -0.007   3.532
 1967SOL    HW2 5926   2.300   0.119   3.634
 1968SOL     OW 5927   2.435   0.870   2.891
 1968SOL    HW1 5928   2.479   0.959   2.882
 1968SOL    HW2 5929   2.372   0.870   2.968
 1969SOL     OW 5930   3.222   0.862   2.907
 1969SOL    HW1 5931   3.147   0.862   2.841
 1969SOL    HW2 5932   3.259   0.770   2.916
 1970SOL     OW 5933   3.071   0.525   2.137
 1970SOL    HW1 5934   3.084   0.441   2.191
 1970SOL    HW2 5935   3.042   0.599   2.197
 1971SOL     OW 5936   2.169   0.213   3.093
 1971SOL    HW1 5937   2.146   0.250   3.183
 1971SOL    HW2 5938   2.139   0.118   3.087
 1972SOL     OW 5939   1.899   1.310   3.144
 1972SOL    HW1 5940   1.952   1.261   3.212
 1972SOL    HW2 5941   1.921   1.408   3.149
 1973SOL     OW 5942   2.594   0.634   2.926
 1973SOL    HW1 5943   2.653   0.608   2.850
 1973SOL    HW2 5944   2.566   0.730   2.915
 1974SOL     OW 5945   3.590   0.935   3.716
 1974SOL    HW1 5946   3.544   0.928   3.627
 1974SOL    HW2 5947   3.528   0.979   3.782
 1975SOL     OW 5948   2.169   0.063   2.480
 1975SOL    HW1 5949   2.158   0.157   2.513
 1975SOL    HW2 5950   2.164   0.000   2.557
 1976SOL     OW 5951   3.484   0.367   2.236
 1976SOL    HW1 5952   3.486   0.291   2.300
 1976SOL    HW2 5953   3.436   0.444   2.276
 1977SOL     OW 5954   2.885   0.766   2.828
 1977SOL    HW1 5955   2.900   0.787   2.924
 1977SOL    HW2 5956   2.855   0.671   2.819
 1978SOL     OW 5957   2.842   1.573   3.562
 1978SOL    HW1 5958   2.822   1.617   3.474
 1978SOL    HW2 5959   2.881   1.482   3.546
 1979SOL     OW 5960   3.721   1.518   3.467
 1979SOL    HW1 5961   3.735   1.545   3.372
 1979SOL    HW2 5962   3.804   1.540   3.520
 1980SOL     OW 5963   2.212   0.898   3.666
 1980SOL    HW1 5964   2.288   0.942   3.714
 1980SOL    HW2 5965   2.247   0.851   3.584
 1981SOL     OW 5966   3.402   0.274   1.987
 1981SOL    HW1 5967   3.341   0.199   2.010
 1981SOL    HW2 5968   3.424   0.326   2.070
 1982SOL     OW 5969   3.165   0.838   1.904
 1982SOL    HW1 5970   3.199   0.745   1.919
 1982SOL    HW2 5971   3.183   0.865   1.809
 1983SOL     OW 5972   2.930   1.333   2.711
 1983SOL    HW1 5973   2.937   1.249   2.656
 1983SOL    HW2 5974   2.992   1.402   2.675
 1984SOL     OW 5975   2.181   0.810   2.811
 1984SOL    HW1 5976   2.274   0.846   2.816
 1984SOL    HW2 5977   2.175   0.725   2.863
 1985SOL     OW 5978   2.201   0.509   2.868
 1985SOL    HW1 5979   2.149   0.426   2.851
 1985SOL    HW2 5980   2.278   0.514   2.804
 1986SOL     OW 5981   3.000   0.380   3.540
 1986SOL    HW1 5982   2.955   0.443   3.604
 1986SOL    HW2 5983   3.093   0.411   3.523
 1987SOL     OW 5984   3.022   0.207   3.339
 1987SOL    HW1 5985   3.022   0.271   3.416
 1987SOL    HW2 5986   3.050   0.255   3.256
 1988SOL     OW 5987   1.870   1.326   2.062
 1988SOL    HW1 5988   1.777   1.347   2.031
 1988SOL    HW2 5989   1.880   1.227   2.075
 1989SOL     OW 5990   1.950   1.801   2.789
 1989SOL    HW1 5991   1.908   1.715   2.762
 1989SOL    HW2 5992   2.044   1.804   2.755
 1990SOL     OW 5993   2.366   1.568   2.772
 1990SOL    HW1 5994   2.432   1.642   2.781
 1990SOL    HW2 5995   2.410   1.489   2.730
 1991SOL     OW 5996   2.864   0.796   3.100
 1991SOL    HW1 5997   2.905   0.764   3.186
 1991SOL    HW2 5998   2.768   0.769   3.097
 1992SOL     OW 5999   1.902   0.544   2.976
 1992SOL    HW1 6000   1.987   0.511   2.935
 1992SOL    HW2 6001   1.915   0.559   3.074
 1993SOL     OW 6002   2.051   0.520   3.584
 1993SOL    HW1 6003   2.110   0.480   3.514
 1993SOL    HW2 6004   1.993   0.591   3.543
 1994SOL     OW 6005   3.231   0.950   3.522
 1994SOL    HW1 6006   3.270   1.039   3.542
 1994SOL    HW2 6007   3.241   0.930   3.425
 1995SOL     OW 6008   2.677   0.572   2.187
 1995SOL    HW1 6009   2.684   0.483   2.141
 1995SOL    HW2 6010   2.583   0.606   2.179
 1996SOL     OW 6011   3.519   0.604   3.068
 1996SOL    HW1 6012   3.481   0.535   3.130
 1996SOL    HW2 6013   3.601   0.568   3.024
 1997SOL     OW 6014   2.114   1.564   3.606
 1997SOL    HW1 6015   2.084   1.621   3.682
 1997SOL    HW2 6016   2.107   1.467   3.632
 1998SOL     OW 6017   2.533   0.464   3.131
 1998SOL    HW1 6018   2.499   0.375   3.101
 1998SOL    HW2 6019   2.559   0.518   3.051
 1999SOL     OW 6020   2.792   1.678   3.327
 1999SOL    HW1 6021   2.768   1.660   3.232
 1999SOL    HW2 6022   2.822   1.772   3.337
 2000SOL     OW 6023   2.335   0.500   2.053
 2000SOL    HW1 6024   2.396   0.580   2.057
 2000SOL    HW2 6025   2.240   0.531   2.060
 2001SOL     OW 6026   2.021   1.137   3.328
 2001SOL    HW1 6027   2.043   1.076   3.404
 2001SOL    HW2 6028   2.031   1.088   3.242
 2002SOL     OW 6029   3.209   1.059   3.096
 2002SOL    HW1 6030   3.233   0.996   3.022
 2002SOL    HW2 6031   3.119   1.099   3.078
 2003SOL     OW 6032   3.164   0.855   2.171
 2003SOL    HW1 6033   3.078   0.824   2.213
 2003SOL    HW2 6034   3.160   0.841   2.072
 2004SOL     OW 6035   3.621   1.747   3.016
 2004SOL    HW1 6036   3.682   1.777   2.943
 2004SOL    HW2 6037   3.583   1.658   2.994
 2005SOL     OW 6038   3.114   1.731   2.990
 2005SOL    HW1 6039   3.198   1.736   2.936
 2005SOL    HW2 6040   3.091   1.635   3.008
 2006SOL     OW 6041   1.945   1.258   2.884
 2006SOL    HW1 6042   1.940   1.257   2.984
 2006SOL    HW2 6043   1.862   1.217   2.846
 2007SOL     OW 6044   2.550   1.662   3.578
 2007SOL    HW1 6045   2.494   1.743   3.587
 2007SOL    HW2 6046   2.602   1.666   3.492
 2008SOL     OW 6047   3.588   0.135   2.385
 2008SOL    HW1 6048   3.661   0.118   2.318
 2008SOL    HW2 6049   3.557   0.048   2.423
 2009SOL     OW 6050   3.250   1.573   2.339
 2009SOL    HW1 6051   3.317   1.585   2.265
 2009SOL    HW2 6052   3.210   1.662   2.362
 2010SOL     OW 6053   1.992   1.794   3.713
 2010SOL    HW1 6054   1.951   1.720   3.766
 2010SOL    HW2 6055   2.056   1.845   3.771
 2011SOL     OW 6056   3.142   0.927   2.534
 2011SOL    HW1 6057   3.202   0.846   2.536
 2011SOL    HW2 6058   3.182   0.996   2.474
 2012SOL     OW 6059   2.692   1.273   3.284
 2012SOL    HW1 6060   2.687   1.306   3.379
 2012SOL    HW2 6061   2.606   1.292   3.238
 2013SOL     OW 6062   2.534   1.616   2.016
 2013SOL    HW1 6063   2.543   1.626   1.917
 2013SOL    HW2 6064   2.494   1.527   2.037
 2014SOL     OW 6065   3.512   1.720   3.256
 2014SOL    HW1 6066   3.565   1.730   3.172
 2014SOL    HW2 6067   3.485   1.810   3.290
 2015SOL     OW 6068   3.703   0.175   2.825
 2015SOL    HW1 6069   3.742   0.090   2.789
 2015SOL    HW2 6070   3.605   0.177   2.806
 2016SOL     OW 6071   2.125   0.326   2.582
 2016SOL    HW1 6072   2.046   0.377   2.548
 2016SOL    HW2 6073   2.116   0.311   2.680
 2017SOL     OW 6074   3.056   1.612   1.893
 2017SOL    HW1 6075   3.062   1.519   1.930
 2017SOL    HW2 6076   2.997   1.612   1.813
 2018SOL     OW 6077   2.684   1.002   3.234
 2018SOL    HW1 6078   2.724   1.001   3.142
 2018SOL    HW2 6079   2.694   1.094   3.274
 2019SOL     OW 6080   2.778   0.910   2.153
 2019SOL    HW1 6081   2.841   0.948   2.085
 2019SOL    HW2 6082   2.818   0.827   2.192
 2020SOL     OW 6083   3.366   1.607   1.906
 2020SOL    HW1 6084   3.274   1.644   1.913
 2020SOL    HW2 6085   3.404   1.627   1.816
 2021SOL     OW 6086   2.234   1.288   3.352
 2021SOL    HW1 6087   2.221   1.381   3.318
 2021SOL    HW2 6088   2.150   1.236   3.339
 2022SOL     OW 6089   3.476   1.292   3.151
 2022SOL    HW1 6090   3.536   1.295   3.231
 2022SOL    HW2 6091   3.401   1.356   3.164
 2023SOL     OW 6092   2.901   1.098   2.558
 2023SOL    HW1 6093   2.831   1.051   2.612
 2023SOL    HW2 6094   2.960   1.030   2.515
 2024SOL     OW 6095   2.876   0.236   2.833
 2024SOL    HW1 6096   2.868   0.200   2.740
 2024SOL    HW2 6097   2.874   0.160   2.898
 2025SOL     OW 6098   2.452   1.487   2.353
 2025SOL    HW1 6099   2.494   1.429   2.283
 2025SOL    HW2 6100   2.408   1.566   2.309
 2026SOL     OW 6101   3.571   0.385   3.243
 2026SOL    HW1 6102   3.644   0.454   3.247
 2026SOL    HW2 6103   3.599   0.310   3.184
 2027SOL     OW 6104   2.117   1.348   2.152
 2027SOL    HW1 6105   2.021   1.349   2.125
 2027SOL    HW2 6106   2.129   1.401   2.236
 2028SOL     OW 6107   1.967   1.013   3.588
 2028SOL    HW1 6108   1.890   0.980   3.642
 2028SOL    HW2 6109   2.052   0.983   3.630
 2029SOL     OW 6110   2.534   0.203   3.351
 2029SOL    HW1 6111   2.624   0.187   3.311
 2029SOL    HW2 6112   2.542   0.208   3.450
 2030SOL     OW 6113   1.937   0.345   1.895
 2030SOL    HW1 6114   1.845   0.317   1.866
 2030SOL    HW2 6115   1.968   0.422   1.839
 2031SOL     OW 6116   3.302   0.856   3.260
 2031SOL    HW1 6117   3.245   0.908   3.197
 2031SOL    HW2 6118   3.398   0.868   3.236
 2032SOL     OW 6119   1.934   0.166   2.180
 2032SOL    HW1 6120   1.917   0.249   2.126
 2032SOL    HW2 6121   2.024   0.129   2.158
 2033SOL     OW 6122   3.045   1.335   1.981
 2033SOL    HW1 6123   2.946   1.324   1.983
 2033SOL    HW2 6124   3.079   1.350   2.074
 2034SOL     OW 6125   2.475   0.842   3.293
 2034SOL    HW1 6126   2.531   0.923   3.276
 2034SOL    HW2 6127   2.534   0.762   3.296
 2035SOL     OW 6128   3.355   1.767   2.821
 2035SOL    HW1 6129   3.388   1.831   2.752
 2035SOL    HW2 6130   3.421   1.761   2.896
 2036SOL     OW 6131   2.578   0.565   3.570
 2036SOL    HW1 6132   2.597   0.630   3.644
 2036SOL    HW2 6133   2.638   0.485   3.579
 2037SOL     OW 6134   3.312   1.220   3.495
 2037SOL    HW1 6135   3.303   1.210   3.594
 2037SOL    HW2 6136   3.408   1.213   3.469
 2038SOL     OW 6137   2.252   1.741   3.422
 2038SOL    HW1 6138   2.161   1.782   3.420
 2038SOL    HW2 6139   2.245   1.647   3.454
 2039SOL     OW 6140   3.536   0.883   3.116
 2039SOL    HW1 6141   3.509   0.794   3.079
 2039SOL    HW2 6142   3.537   0.951   3.043
 2040SOL     OW 6143   3.087   0.325   2.311
 2040SOL    HW1 6144   3.152   0.251   2.300
 2040SOL    HW2 6145   3.107   0.375   2.395
 2041SOL     OW 6146   2.456   0.745   2.514
 2041SOL    HW1 6147   2.506   0.830   2.495
 2041SOL    HW2 6148   2.368   0.747   2.466
 2042SOL     OW 6149   3.639   0.342   3.504
 2042SOL    HW1 6150   3.622   0.373   3.410
 2042SOL    HW2 6151   3.555   0.305   3.542
 2043SOL     OW 6152   3.592   0.934   3.379
 2043SOL    HW1 6153   3.630   1.025   3.394
 2043SOL    HW2 6154   3.584   0.917   3.280
 2044SOL     OW 6155   2.721   1.374   1.878
 2044SOL    HW1 6156   2.675   1.389   1.966
 2044SOL    HW2 6157   2.765   1.459   1.848
 2045SOL     OW 6158   2.523   1.790   2.815
 2045SOL    HW1 6159   2.477   1.878   2.802
 2045SOL    HW2 6160   2.622   1.802   2.808
 2046SOL     OW 6161   2.721   0.956   2.723
 2046SOL    HW1 6162   2.775   0.887   2.771
 2046SOL    HW2 6163   2.689   1.025   2.789
 2047SOL     OW 6164   2.945   0.984   1.949
 2047SOL    HW1 6165   2.922   1.037   1.867
 2047SOL    HW2 6166   3.026   0.928   1.930
 2048SOL     OW 6167   3.723   1.569   2.713
 2048SOL    HW1 6168   3.652   1.557   2.643
 2048SOL    HW2 6169   3.724   1.490   2.773
 2049SOL     OW 6170   2.083   1.314   3.706
 2049SOL    HW1 6171   2.018   1.241   3.685
 2049SOL    HW2 6172   2.087   1.328   3.804
 2050SOL     OW 6173   1.941   1.240   2.515
 2050SOL    HW1 6174   1.940   1.193   2.603
 2050SOL    HW2 6175   2.023   1.212   2.464
 2051SOL     OW 6176   2.534   1.391   3.486
 2051SOL    HW1 6177   2.456   1.341   3.524
 2051SOL    HW2 6178   2.531   1.486   3.517
 2052SOL     OW 6179   3.686   0.192   3.089
 2052SOL    HW1 6180   3.682   0.102   3.133
 2052SOL    HW2 6181   3.689   0.181   2.990
 2053SOL     OW 6182   2.290   0.424   2.382
 2053SOL    HW1 6183   2.320   0.352   2.320
 2053SOL    HW2 6184   2.251   0.384   2.465
 2054SOL     OW 6185   3.567   1.487   2.966
 2054SOL    HW1 6186   3.474   1.462   2.939
 2054SOL    HW2 6187   3.593   1.437   3.048
 2055SOL     OW 6188   2.179   0.547   3.142
 2055SOL    HW1 6189   2.217   0.488   3.214
 2055SOL    HW2 6190   2.219   0.521   3.054
 2056SOL     OW 6191   2.674   1.586   2.549
 2056SOL    HW1 6192   2.706   1.596   2.455
 2056SOL    HW2 6193   2.595   1.524   2.551
 2057SOL     OW 6194   3.286   0.214   2.974
 2057SOL    HW1 6195   3.338   0.149   3.029
 2057SOL    HW2 6196   3.237   0.277   3.035
 2058SOL     OW 6197   2.863   0.034   3.016
 2058SOL    HW1 6198   2.800  -0.038   2.985
 2058SOL    HW2 6199   2.956  -0.002   3.016
 2059SOL     OW 6200   2.632   1.330   2.163
 2059SOL    HW1 6201   2.586   1.243   2.180
 2059SOL    HW2 6202   2.723   1.327   2.204
 2060SOL     OW 6203   2.480   1.567   3.146
 2060SOL    HW1 6204   2.475   1.649   3.203
 2060SOL    HW2 6205   2.569   1.564   3.101
 2061SOL     OW 6206   3.214   0.052   2.030
 2061SOL    HW1 6207   3.249   0.011   1.946
 2061SOL    HW2 6208   3.124   0.014   2.050
 2062SOL     OW 6209   3.162   0.453   2.553
 2062SOL    HW1 6210   3.103   0.533   2.557
 2062SOL    HW2 6211   3.177   0.418   2.646
 2063SOL     OW 6212   3.455   0.221   2.744
 2063SOL    HW1 6213   3.371   0.220   2.798
 2063SOL    HW2 6214   3.457   0.304   2.688
 2064SOL     OW 6215   1.901   1.077   2.162
 2064SOL    HW1 6216   2.000   1.066   2.153
 2064SOL    HW2 6217   1.861   0.991   2.194
 2065SOL     OW 6218   2.737   1.646   2.199
 2065SOL    HW1 6219   2.660   1.611   2.145
 2065SOL    HW2 6220   2.705   1.717   2.261
 2066SOL     OW 6221   2.092   0.628   3.837
 2066SOL    HW1 6222   1.999   0.626   3.874
 2066SOL    HW2 6223   2.093   0.589   3.745
 2067SOL     OW 6224   2.087   0.275   4.720
 2067SOL    HW1 6225   2.122   0.258   4.812
 2067SOL    HW2 6226   1.999   0.230   4.708
 2068SOL     OW 6227   1.881   0.368   4.371
 2068SOL    HW1 6228   1.799   0.411   4.410
 2068SOL    HW2 6229   1.853   0.295   4.308
 2069SOL     OW 6230   2.431   1.275   4.889
 2069SOL    HW1 6231   2.338   1.268   4.852
 2069SOL    HW2 6232   2.442   1.364   4.933
 2070SOL     OW 6233   3.417   1.511   4.427
 2070SOL    HW1 6234   3.360   1.495   4.508
 2070SOL    HW2 6235   3.358   1.521   4.347
 2071SOL     OW 6236   2.997   0.703   4.441
 2071SOL    HW1 6237   3.054   0.781   4.416
 2071SOL    HW2 6238   2.937   0.729   4.517
 2072SOL     OW 6239   3.617   0.607   3.955
 2072SOL    HW1 6240   3.605   0.594   3.856
 2072SOL    HW2 6241   3.587   0.526   4.004
 2073SOL     OW 6242   2.630   1.144   4.747
 2073SOL    HW1 6243   2.552   1.161   4.807
 2073SOL    HW2 6244   2.664   1.231   4.711
 2074SOL     OW 6245   2.547   1.012   4.389
 2074SOL    HW1 6246   2.616   0.996   4.459
 2074SOL    HW2 6247   2.474   1.069   4.427
 2075SOL     OW 6248   2.197   1.435   4.785
 2075SOL    HW1 6249   2.119   1.404   4.732
 2075SOL    HW2 6250   2.255   1.493   4.728
 2076SOL     OW 6251   2.300   0.392   5.223
 2076SOL    HW1 6252   2.382   0.336   5.232
 2076SOL    HW2 6253   2.219   0.334   5.227
 2077SOL     OW 6254   3.465   0.447   4.461
 2077SOL    HW1 6255   3.391   0.493   4.411
 2077SOL    HW2 6256   3.516   0.515   4.514
 2078SOL     OW 6257   2.093   1.713   4.207
 2078SOL    HW1 6258   2.127   1.790   4.261
 2078SOL    HW2 6259   2.137   1.713   4.117
 2079SOL     OW 6260   2.092   1.434   4.262
 2079SOL    HW1 6261   2.066   1.530   4.262
 2079SOL    HW2 6262   2.021   1.380   4.307
 2080SOL     OW 6263   2.102   1.091   4.610
 2080SOL    HW1 6264   2.116   1.007   4.662
 2080SOL    HW2 6265   2.047   1.155   4.665
 2081SOL     OW 6266   2.482   1.786   5.163
 2081SOL    HW1 6267   2.390   1.769   5.198
 2081SOL    HW2 6268   2.510   1.878   5.189
 2082SOL     OW 6269   2.468   0.964   3.847
 2082SOL    HW1 6270   2.475   1.048   3.793
 2082SOL    HW2 6271   2.514   0.977   3.935
 2083SOL     OW 6272   1.984   0.643   4.287
 2083SOL    HW1 6273   1.939   0.555   4.304
 2083SOL    HW2 6274   1.983   0.697   4.371
 2084SOL     OW 6275   3.704   1.767   4.083
 2084SOL    HW1 6276   3.758   1.738   4.163
 2084SOL    HW2 6277   3.734   1.857   4.054
 2085SOL     OW 6278   1.889   1.596   3.841
 2085SOL    HW1 6279   1.870   1.500   3.862
 2085SOL    HW2 6280   1.856   1.654   3.916
 2086SOL     OW 6281   3.551   0.922   4.336
 2086SOL    HW1 6282   3.646   0.893   4.344
 2086SOL    HW2 6283   3.543   0.987   4.261
 2087SOL     OW 6284   3.503   1.108   4.156
 2087SOL    HW1 6285   3.589   1.110   4.104
 2087SOL    HW2 6286   3.517   1.155   4.244
 2088SOL     OW 6287   2.475   1.365   4.450
 2088SOL    HW1 6288   2.426   1.278   4.459
 2088SOL    HW2 6289   2.452   1.408   4.363
 2089SOL     OW 6290   2.671   0.004   4.226
 2089SOL    HW1 6291   2.711   0.095   4.217
 2089SOL    HW2 6292   2.571   0.012   4.232
 2090SOL     OW 6293   2.059   0.976   4.988
 2090SOL    HW1 6294   2.148   0.931   4.974
 2090SOL    HW2 6295   1.986   0.911   4.969
 2091SOL     OW 6296   3.387   0.999   3.914
 2091SOL    HW1 6297   3.324   0.923   3.927
 2091SOL    HW2 6298   3.435   1.017   4.000
 2092SOL     OW 6299   3.328   1.417   4.677
 2092SOL    HW1 6300   3.269   1.423   4.757
 2092SOL    HW2 6301   3.313   1.329   4.631
 2093SOL     OW 6302   3.529   1.714   4.296
 2093SOL    HW1 6303   3.488   1.691   4.208
 2093SOL    HW2 6304   3.511   1.640   4.361
 2094SOL     OW 6305   2.460   0.729   3.994
 2094SOL    HW1 6306   2.484   0.798   3.926
 2094SOL    HW2 6307   2.382   0.762   4.048
 2095SOL     OW 6308   3.143   0.345   4.668
 2095SOL    HW1 6309   3.057   0.295   4.655
 2095SOL    HW2 6310   3.205   0.291   4.724
 2096SOL     OW 6311   3.438   1.662   4.031
 2096SOL    HW1 6312   3.527   1.708   4.034
 2096SOL    HW2 6313   3.417   1.638   3.936
 2097SOL     OW 6314   2.669   0.605   5.189
 2097SOL    HW1 6315   2.622   0.602   5.278
 2097SOL    HW2 6316   2.618   0.550   5.123
 2098SOL     OW 6317   2.853   0.410   4.966
 2098SOL    HW1 6318   2.776   0.444   5.020
 2098SOL    HW2 6319   2.819   0.359   4.887
 2099SOL     OW 6320   2.903   0.701   4.153
 2099SOL    HW1 6321   2.929   0.697   4.249
 2099SOL    HW2 6322   2.818   0.650   4.139
 2100SOL     OW 6323   1.938   0.811   4.513
 2100SOL    HW1 6324   2.037   0.799   4.522
 2100SOL    HW2 6325   1.914   0.906   4.534
 2101SOL     OW 6326   1.992   1.821   5.295
 2101SOL    HW1 6327   1.982   1.806   5.394
 2101SOL    HW2 6328   1.906   1.857   5.259
 2102SOL     OW 6329   2.727   0.348   3.919
 2102SOL    HW1 6330   2.786   0.411   3.870
 2102SOL    HW2 6331   2.746   0.254   3.890
 2103SOL     OW 6332   3.224   1.144   4.269
 2103SOL    HW1 6333   3.307   1.115   4.221
 2103SOL    HW2 6334   3.175   1.211   4.213
 2104SOL     OW 6335   2.412   0.196   4.609
 2104SOL    HW1 6336   2.407   0.191   4.709
 2104SOL    HW2 6337   2.414   0.292   4.580
 2105SOL     OW 6338   2.870   1.456   4.201
 2105SOL    HW1 6339   2.824   1.528   4.149
 2105SOL    HW2 6340   2.866   1.476   4.299
 2106SOL     OW 6341   2.213   1.801   4.577
 2106SOL    HW1 6342   2.263   1.715   4.583
 2106SOL    HW2 6343   2.278   1.878   4.574
 2107SOL     OW 6344   3.657   1.066   4.597
 2107SOL    HW1 6345   3.595   1.051   4.521
 2107SOL    HW2 6346   3.605   1.077   4.682
 2108SOL     OW 6347   2.183   0.943   3.966
 2108SOL    HW1 6348   2.265   0.982   3.924
 2108SOL    HW2 6349   2.156   0.861   3.917
 2109SOL     OW 6350   3.320   0.735   4.452
 2109SOL    HW1 6351   3.315   0.670   4.527
 2109SOL    HW2 6352   3.400   0.794   4.465
 2110SOL     OW 6353   2.973   1.776   3.961
 2110SOL    HW1 6354   2.913   1.714   4.011
 2110SOL    HW2 6355   3.004   1.732   3.876
 2111SOL     OW 6356   3.494   1.377   3.805
 2111SOL    HW1 6357   3.462   1.471   3.795
 2111SOL    HW2 6358   3.418   1.314   3.793
 2112SOL     OW 6359   2.326   1.743   4.047
 2112SOL    HW1 6360   2.359   1.782   4.133
 2112SOL    HW2 6361   2.402   1.736   3.982
 2113SOL     OW 6362   3.262   0.107   4.150
 2113SOL    HW1 6363   3.238   0.070   4.060
 2113SOL    HW2 6364   3.361   0.123   4.154
 2114SOL     OW 6365   2.111   1.785   4.965
 2114SOL    HW1 6366   2.168   1.720   5.015
 2114SOL    HW2 6367   2.095   1.752   4.872
 2115SOL     OW 6368   2.802   1.698   4.628
 2115SOL    HW1 6369   2.882   1.641   4.649
 2115SOL    HW2 6370   2.753   1.658   4.551
 2116SOL     OW 6371   2.244   0.700   4.204
 2116SOL    HW1 6372   2.289   0.610   4.201
 2116SOL    HW2 6373   2.150   0.689   4.237
 2117SOL     OW 6374   2.476   0.122   3.841
 2117SOL    HW1 6375   2.574   0.100   3.848
 2117SOL    HW2 6376   2.445   0.105   3.748
 2118SOL     OW 6377   2.750   1.514   4.919
 2118SOL    HW1 6378   2.727   1.489   4.825
 2118SOL    HW2 6379   2.811   1.445   4.958
 2119SOL     OW 6380   2.665   1.402   4.648
 2119SOL    HW1 6381   2.755   1.416   4.606
 2119SOL    HW2 6382   2.594   1.404   4.577
 2120SOL     OW 6383   2.784   0.503   4.623
 2120SOL    HW1 6384   2.759   0.494   4.527
 2120SOL    HW2 6385   2.832   0.421   4.654
 2121SOL     OW 6386   2.401   0.064   4.236
 2121SOL    HW1 6387   2.320   0.065   4.294
 2121SOL    HW2 6388   2.404   0.147   4.181
 2122SOL     OW 6389   3.296   1.188   3.765
 2122SOL    HW1 6390   3.328   1.112   3.822
 2122SOL    HW2 6391   3.204   1.215   3.795
 2123SOL     OW 6392   2.159   0.035   3.895
 2123SOL    HW1 6393   2.208   0.119   3.874
 2123SOL    HW2 6394   2.221  -0.030   3.940
 2124SOL     OW 6395   2.797   0.236   4.204
 2124SOL    HW1 6396   2.749   0.277   4.126
 2124SOL    HW2 6397   2.896   0.234   4.185
 2125SOL     OW 6398   3.089   1.570   4.517
 2125SOL    HW1 6399   3.110   1.644   4.452
 2125SOL    HW2 6400   3.157   1.570   4.590
 2126SOL     OW 6401   2.321   1.152   4.465
 2126SOL    HW1 6402   2.250   1.125   4.530
 2126SOL    HW2 6403   2.295   1.124   4.372
 2127SOL     OW 6404   3.133   1.797   4.315
 2127SOL    HW1 6405   3.177   1.861   4.251
 2127SOL    HW2 6406   3.083   1.849   4.385
 2128SOL     OW 6407   2.894   0.549   3.740
 2128SOL    HW1 6408   2.853   0.631   3.701
 2128SOL    HW2 6409   2.958   0.575   3.813
 2129SOL     OW 6410   2.423   0.222   4.871
 2129SOL    HW1 6411   2.461   0.138   4.908
 2129SOL    HW2 6412   2.335   0.241   4.915
 2130SOL     OW 6413   2.728   0.454   4.366
 2130SOL    HW1 6414   2.696   0.526   4.304
 2130SOL    HW2 6415   2.752   0.373   4.313
 2131SOL     OW 6416   2.879   0.039   4.477
 2131SOL    HW1 6417   2.807   0.044   4.408
 2131SOL    HW2 6418   2.855  -0.030   4.546
 2132SOL     OW 6419   3.291   1.173   4.591
 2132SOL    HW1 6420   3.236   1.089   4.584
 2132SOL    HW2 6421   3.317   1.202   4.499
 2133SOL     OW 6422   3.328   0.590   4.716
 2133SOL    HW1 6423   3.298   0.495   4.723
 2133SOL    HW2 6424   3.401   0.606   4.782
 2134SOL     OW 6425   3.719   0.833   4.101
 2134SOL    HW1 6426   3.761   0.769   4.165
 2134SOL    HW2 6427   3.681   0.782   4.023
 2135SOL     OW 6428   2.350   1.385   3.898
 2135SOL    HW1 6429   2.263   1.370   3.945
 2135SOL    HW2 6430   2.333   1.411   3.803
 2136SOL     OW 6431   3.526   1.280   4.381
 2136SOL    HW1 6432   3.625   1.288   4.395
 2136SOL    HW2 6433   3.481   1.364   4.412
 2137SOL     OW 6434   3.252   0.575   3.802
 2137SOL    HW1 6435   3.198   0.554   3.883
 2137SOL    HW2 6436   3.343   0.534   3.811
 2138SOL     OW 6437   2.389   0.256   4.052
 2138SOL    HW1 6438   2.416   0.197   3.977
 2138SOL    HW2 6439   2.389   0.351   4.021
 2139SOL     OW 6440   3.616   1.223   5.312
 2139SOL    HW1 6441   3.707   1.184   5.299
 2139SOL    HW2 6442   3.624   1.319   5.336
 2140SOL     OW 6443   2.926   1.347   5.064
 2140SOL    HW1 6444   2.846   1.324   5.119
 2140SOL    HW2 6445   3.009   1.321   5.113
 2141SOL     OW 6446   2.973   1.195   4.824
 2141SOL    HW1 6447   2.933   1.239   4.905
 2141SOL    HW2 6448   2.932   1.232   4.741
 2142SOL     OW 6449   3.500   1.099   4.803
 2142SOL    HW1 6450   3.505   1.180   4.862
 2142SOL    HW2 6451   3.414   1.101   4.752
 2143SOL     OW 6452   2.567   1.050   4.092
 2143SOL    HW1 6453   2.553   1.057   4.191
 2143SOL    HW2 6454   2.651   0.999   4.074
 2144SOL     OW 6455   2.272   0.813   4.975
 2144SOL    HW1 6456   2.358   0.825   5.025
 2144SOL    HW2 6457   2.230   0.726   5.002
 2145SOL     OW 6458   3.136   0.386   4.986
 2145SOL    HW1 6459   3.157   0.460   5.050
 2145SOL    HW2 6460   3.047   0.403   4.943
 2146SOL     OW 6461   1.926   1.564   5.055
 2146SOL    HW1 6462   1.880   1.646   5.021
 2146SOL    HW2 6463   2.024   1.583   5.064
 2147SOL     OW 6464   2.229   1.100   4.225
 2147SOL    HW1 6465   2.222   1.183   4.169
 2147SOL    HW2 6466   2.233   1.020   4.165
 2148SOL     OW 6467   2.428   0.537   4.589
 2148SOL    HW1 6468   2.440   0.603   4.515
 2148SOL    HW2 6469   2.474   0.571   4.672
 2149SOL     OW 6470   3.114   1.348   4.112
 2149SOL    HW1 6471   3.164   1.425   4.152
 2149SOL    HW2 6472   3.019   1.350   4.144
 2150SOL     OW 6473   3.134   1.445   4.866
 2150SOL    HW1 6474   3.181   1.458   4.953
 2150SOL    HW2 6475   3.068   1.371   4.875
 2151SOL     OW 6476   3.444   0.639   4.196
 2151SOL    HW1 6477   3.413   0.700   4.269
 2151SOL    HW2 6478   3.494   0.691   4.127
 2152SOL     OW 6479   2.216   1.510   5.053
 2152SOL    HW1 6480   2.195   1.466   4.966
 2152SOL    HW2 6481   2.313   1.536   5.056
 2153SOL     OW 6482   2.435   0.870   4.753
 2153SOL    HW1 6483   2.479   0.959   4.744
 2153SOL    HW2 6484   2.372   0.870   4.830
 2154SOL     OW 6485   3.222   0.862   4.769
 2154SOL    HW1 6486   3.147   0.862   4.703
 2154SOL    HW2 6487   3.259   0.770   4.778
 2155SOL     OW 6488   3.071   0.525   3.999
 2155SOL    HW1 6489   3.084   0.441   4.053
 2155SOL    HW2 6490   3.042   0.599   4.059
 2156SOL     OW 6491   2.169   0.213   4.955
 2156SOL    HW1 6492   2.146   0.250   5.045
 2156SOL    HW2 6493   2.139   0.118   4.949
 2157SOL     OW 6494   1.899   1.310   5.006
 2157SOL    HW1 6495   1.952   1.261   5.074
 2157SOL    HW2 6496   1.921   1.408   5.011
 2158SOL     OW 6497   2.594   0.634   4.788
 2158SOL    HW1 6498   2.653   0.608   4.712
 2158SOL    HW2 6499   2.566   0.730   4.777
 2159SOL     OW 6500   2.169   0.063   4.342
 2159SOL    HW1 6501   2.158   0.157   4.375
 2159SOL    HW2 6502   2.164   0.000   4.419
 2160SOL     OW 6503   3.484   0.367   4.098
 2160SOL    HW1 6504   3.486   0.291   4.162
 2160SOL    HW2 6505   3.436   0.444   4.138
 2161SOL     OW 6506   2.885   0.766   4.690
 2161SOL    HW1 6507   2.900   0.787   4.786
 2161SOL    HW2 6508   2.855   0.671   4.681
 2162SOL     OW 6509   3.402   0.274   3.849
 2162SOL    HW1 6510   3.341   0.199   3.872
 2162SOL    HW2 6511   3.424   0.326   3.932
 2163SOL     OW 6512   3.165   0.838   3.766
 2163SOL    HW1 6513   3.199   0.745   3.781
 2163SOL    HW2 6514   3.183   0.865   3.671
 2164SOL     OW 6515   2.930   1.333   4.573
 2164SOL    HW1 6516   2.937   1.249   4.518
 2164SOL    HW2 6517   2.992   1.402   4.537
 2165SOL     OW 6518   2.181   0.810   4.673
 2165SOL    HW1 6519   2.274   0.846   4.678
 2165SOL    HW2 6520   2.175   0.725   4.725
 2166SOL     OW 6521   2.201   0.509   4.730
 2166SOL    HW1 6522   2.149   0.426   4.713
 2166SOL    HW2 6523   2.278   0.514   4.666
 2167SOL     OW 6524   3.022   0.207   5.201
 2167SOL    HW1 6525   3.022   0.271   5.278
 2167SOL    HW2 6526   3.050   0.255   5.118
 2168SOL     OW 6527   1.870   1.326   3.924
 2168SOL    HW1 6528   1.777   1.347   3.893
 2168SOL    HW2 6529   1.880   1.227   3.937
 2169SOL     OW 6530   1.950   1.801   4.651
 2169SOL    HW1 6531   1.908   1.715   4.624
 2169SOL    HW2 6532   2.044   1.804   4.617
 2170SOL     OW 6533   2.366   1.568   4.634
 2170SOL    HW1 6534   2.432   1.642   4.643
 2170SOL    HW2 6535   2.410   1.489   4.592
 2171SOL     OW 6536   2.864   0.796   4.962
 2171SOL    HW1 6537   2.905   0.764   5.048
 2171SOL    HW2 6538   2.768   0.769   4.959
 2172SOL     OW 6539   1.902   0.544   4.838
 2172SOL    HW1 6540   1.987   0.511   4.797
 2172SOL    HW2 6541   1.915   0.559   4.936
 2173SOL     OW 6542   2.677   0.572   4.049
 2173SOL    HW1 6543   2.684   0.483   4.003
 2173SOL    HW2 6544   2.583   0.606   4.041
 2174SOL     OW 6545   3.519   0.604   4.930
 2174SOL    HW1 6546   3.481   0.535   4.992
 2174SOL    HW2 6547   3.601   0.568   4.886
 2175SOL     OW 6548   2.533   0.464   4.993
 2175SOL    HW1 6549   2.499   0.375   4.963
 2175SOL    HW2 6550   2.559   0.518   4.913
 2176SOL     OW 6551   2.792   1.678   5.189
 2176SOL    HW1 6552   2.768   1.660   5.094
 2176SOL    HW2 6553   2.822   1.772   5.199
 2177SOL     OW 6554   2.335   0.500   3.915
 2177SOL    HW1 6555   2.396   0.580   3.919
 2177SOL    HW2 6556   2.240   0.531   3.922
 2178SOL     OW 6557   2.021   1.137   5.190
 2178SOL    HW1 6558   2.043   1.076   5.266
 2178SOL    HW2 6559   2.031   1.088   5.104
 2179SOL     OW 6560   3.209   1.059   4.958
 2179SOL    HW1 6561   3.233   0.996   4.884
 2179SOL    HW2 6562   3.119   1.099   4.940
 2180SOL     OW 6563   3.164   0.855   4.033
 2180SOL    HW1 6564   3.078   0.824   4.075
 2180SOL    HW2 6565   3.160   0.841   3.934
 2181SOL     OW 6566   3.621   1.747   4.878
 2181SOL    HW1 6567   3.682   1.777   4.805
 2181SOL    HW2 6568   3.583   1.658   4.856
 2182SOL     OW 6569   3.114   1.731   4.852
 2182SOL    HW1 6570   3.198   1.736   4.798
 2182SOL    HW2 6571   3.091   1.635   4.870
 2183SOL     OW 6572   1.945   1.258   4.746
 2183SOL    HW1 6573   1.940   1.257   4.846
 2183SOL    HW2 6574   1.862   1.217   4.708
 2184SOL     OW 6575   3.588   0.135   4.247
 2184SOL    HW1 6576   3.661   0.118   4.180
 2184SOL    HW2 6577   3.557   0.048   4.285
 2185SOL     OW 6578   3.250   1.573   4.201
 2185SOL    HW1 6579   3.317   1.585   4.127
 2185SOL    HW2 6580   3.210   1.662   4.224
 2186SOL     OW 6581   3.142   0.927   4.396
 2186SOL    HW1 6582   3.202   0.846   4.398
 2186SOL    HW2 6583   3.182   0.996   4.336
 2187SOL     OW 6584   2.534   1.616   3.878
 2187SOL    HW1 6585   2.543   1.626   3.779
 2187SOL    HW2 6586   2.494   1.527   3.899
 2188SOL     OW 6587   3.703   0.175   4.687
 2188SOL    HW1 6588   3.742   0.090   4.651
 2188SOL    HW2 6589   3.605   0.177   4.668
 2189SOL     OW 6590   2.125   0.326   4.444
 2189SOL    HW1 6591   2.046   0.377   4.410
 2189SOL    HW2 6592   2.116   0.311   4.542
 2190SOL     OW 6593   3.056   1.612   3.755
 2190SOL    HW1 6594   3.062   1.519   3.792
 2190SOL    HW2 6595   2.997   1.612   3.675
 2191SOL     OW 6596   2.684   1.002   5.096
 2191SOL    HW1 6597   2.724   1.001   5.004
 2191SOL    HW2 6598   2.694   1.094   5.136
 2192SOL     OW 6599   2.778   0.910   4.015
 2192SOL    HW1 6600   2.841   0.948   3.947
 2192SOL    HW2 6601   2.818   0.827   4.054
 2193SOL     OW 6602   3.366   1.607   3.768
 2193SOL    HW1 6603   3.274   1.644   3.775
 2193SOL    HW2 6604   3.404   1.627   3.678
 2194SOL     OW 6605   2.234   1.288   5.214
 2194SOL    HW1 6606   2.221   1.381   5.180
 2194SOL    HW2 6607   2.150   1.236   5.201
 2195SOL     OW 6608   3.476   1.292   5.013
 2195SOL    HW1 6609   3.536   1.295   5.093
 2195SOL    HW2 6610   3.401   1.356   5.026
 2196SOL     OW 6611   2.901   1.098   4.420
 2196SOL    HW1 6612   2.831   1.051   4.474
 2196SOL    HW2 6613   2.960   1.030   4.377
 2197SOL     OW 6614   2.876   0.236   4.695
 2197SOL    HW1 6615   2.868   0.200   4.602
 2197SOL    HW2 6616   2.874   0.160   4.760
 2198SOL     OW 6617   2.452   1.487   4.215
 2198SOL    HW1 6618   2.494   1.429   4.145
 2198SOL    HW2 6619   2.408   1.566   4.171
 2199SOL     OW 6620   3.571   0.385   5.105
 2199SOL    HW1 6621   3.644   0.454   5.109
 2199SOL    HW2 6622   3.599   0.310   5.046
 2200SOL     OW 6623   2.117   1.348   4.014
 2200SOL    HW1 6624   2.021   1.349   3.987
 2200SOL    HW2 6625   2.129   1.401   4.098
 2201SOL     OW 6626   1.937   0.345   3.757
 2201SOL    HW1 6627   1.845   0.317   3.728
 2201SOL    HW2 6628   1.968   0.422   3.701
 2202SOL     OW 6629   1.934   0.166   4.042
 2202SOL    HW1 6630   1.917   0.249   3.988
 2202SOL    HW2 6631   2.024   0.129   4.020
 2203SOL     OW 6632   3.045   1.335   3.843
 2203SOL    HW1 6633   2.946   1.324   3.845
 2203SOL    HW2 6634   3.079   1.350   3.936
 2204SOL     OW 6635   2.475   0.842   5.155
 2204SOL    HW1 6636   2.531   0.923   5.138
 2204SOL    HW2 6637   2.534   0.762   5.158
 2205SOL     OW 6638   3.355   1.767   4.683
 2205SOL    HW1 6639   3.388   1.831   4.614
 2205SOL    HW2 6640   3.421   1.761   4.758
 2206SOL     OW 6641   2.252   1.741   5.284
 2206SOL    HW1 6642   2.161   1.782   5.282
 2206SOL    HW2 6643   2.245   1.647   5.316
 2207SOL     OW 6644   3.536   0.883   4.978
 2207SOL    HW1 6645   3.509   0.794   4.941
 2207SOL    HW2 6646   3.537   0.951   4.905
 2208SOL     OW 6647   3.087   0.325   4.173
 2208SOL    HW1 6648   3.152   0.251   4.162
 2208SOL    HW2 6649   3.107   0.375   4.257
 2209SOL     OW 6650   2.456   0.745   4.376
 2209SOL    HW1 6651   2.506   0.830   4.357
 2209SOL    HW2 6652   2.368   0.747   4.328
 2210SOL     OW 6653   3.592   0.934   5.241
 2210SOL    HW1 6654   3.630   1.025   5.256
 2210SOL    HW2 6655   3.584   0.917   5.142
 2211SOL     OW 6656   2.721   1.374   3.740
 2211SOL    HW1 6657   2.675   1.389   3.828
 2211SOL    HW2 6658   2.765   1.459   3.710
 2212SOL     OW 6659   2.523   1.790   4.677
 2212SOL    HW1 6660   2.477   1.878   4.664
 2212SOL    HW2 6661   2.622   1.802   4.670
 2213SOL     OW 6662   2.721   0.956   4.585
 2213SOL    HW1 6663   2.775   0.887   4.633
 2213SOL    HW2 6664   2.689   1.025   4.651
 2214SOL     OW 6665   2.945   0.984   3.811
 2214SOL    HW1 6666   2.922   1.037   3.729
 2214SOL    HW2 6667   3.026   0.928   3.792
 2215SOL     OW 6668   3.723   1.569   4.575
 2215SOL    HW1 6669   3.652   1.557   4.505
 2215SOL    HW2 6670   3.724   1.490   4.635
 2216SOL     OW 6671   1.941   1.240   4.377
 2216SOL    HW1 6672   1.940   1.193   4.465
 2216SOL    HW2 6673   2.023   1.212   4.326
 2217SOL     OW 6674   3.686   0.192   4.951
 2217SOL    HW1 6675   3.682   0.102   4.995
 2217SOL    HW2 6676   3.689   0.181   4.852
 2218SOL     OW 6677   2.290   0.424   4.244
 2218SOL    HW1 6678   2.320   0.352   4.182
 2218SOL    HW2 6679   2.251   0.384   4.327
 2219SOL     OW 6680   3.567   1.487   4.828
 2219SOL    HW1 6681   3.474   1.462   4.801
 2219SOL    HW2 6682   3.593   1.437   4.910
 2220SOL     OW 6683   2.179   0.547   5.004
 2220SOL    HW1 6684   2.217   0.488   5.076
 2220SOL    HW2 6685   2.219   0.521   4.916
 2221SOL     OW 6686   2.674   1.586   4.411
 2221SOL    HW1 6687   2.706   1.596   4.317
 2221SOL    HW2 6688   2.595   1.524   4.413
 2222SOL     OW 6689   3.286   0.214   4.836
 2222SOL    HW1 6690   3.338   0.149   4.891
 2222SOL    HW2 6691   3.237   0.277   4.897
 2223SOL     OW 6692   2.863   0.034   4.878
 2223SOL    HW1 6693   2.800  -0.038   4.847
 2223SOL    HW2 6694   2.956  -0.002   4.878
 2224SOL     OW 6695   2.632   1.330   4.025
 2224SOL    HW1 6696   2.586   1.243   4.042
 2224SOL    HW2 6697   2.723   1.327   4.066
 2225SOL     OW 6698   2.480   1.567   5.008
 2225SOL    HW1 6699   2.475   1.649   5.065
 2225SOL    HW2 6700   2.569   1.564   4.963
 2226SOL     OW 6701   3.214   0.052   3.892
 2226SOL    HW1 6702   3.249   0.011   3.808
 2226SOL    HW2 6703   3.124   0.014   3.912
 2227SOL     OW 6704   3.162   0.453   4.415
 2227SOL    HW1 6705   3.103   0.533   4.419
 2227SOL    HW2 6706   3.177   0.418   4.508
 2228SOL     OW 6707   3.455   0.221   4.606
 2228SOL    HW1 6708   3.371   0.220   4.660
 2228SOL    HW2 6709   3.457   0.304   4.550
 2229SOL     OW 6710   1.901   1.077   4.024
 2229SOL    HW1 6711   2.000   1.066   4.015
 2229SOL    HW2 6712   1.861   0.991   4.056
 2230SOL     OW 6713   2.737   1.646   4.061
 2230SOL    HW1 6714   2.660   1.611   4.007
 2230SOL    HW2 6715   2.705   1.717   4.123
 2231SOL     OW 6716   2.092   2.490   0.113
 2231SOL    HW1 6717   1.999   2.488   0.150
 2231SOL    HW2 6718   2.093   2.451   0.021
 2232SOL     OW 6719   2.087   2.137   0.996
 2232SOL    HW1 6720   2.122   2.120   1.088
 2232SOL    HW2 6721   1.999   2.092   0.984
 2233SOL     OW 6722   1.881   2.230   0.647
 2233SOL    HW1 6723   1.799   2.273   0.686
 2233SOL    HW2 6724   1.853   2.157   0.584
 2234SOL     OW 6725   2.431   3.137   1.165
 2234SOL    HW1 6726   2.338   3.130   1.128
 2234SOL    HW2 6727   2.442   3.226   1.209
 2235SOL     OW 6728   3.417   3.373   0.703
 2235SOL    HW1 6729   3.360   3.357   0.784
 2235SOL    HW2 6730   3.358   3.383   0.623
 2236SOL     OW 6731   2.997   2.565   0.717
 2236SOL    HW1 6732   3.054   2.643   0.692
 2236SOL    HW2 6733   2.937   2.591   0.793
 2237SOL     OW 6734   3.617   2.469   0.231
 2237SOL    HW1 6735   3.605   2.456   0.132
 2237SOL    HW2 6736   3.587   2.388   0.280
 2238SOL     OW 6737   2.630   3.006   1.023
 2238SOL    HW1 6738   2.552   3.023   1.083
 2238SOL    HW2 6739   2.664   3.093   0.987
 2239SOL     OW 6740   2.712   2.660   1.823
 2239SOL    HW1 6741   2.708   2.736   1.888
 2239SOL    HW2 6742   2.734   2.696   1.732
 2240SOL     OW 6743   2.547   2.874   0.665
 2240SOL    HW1 6744   2.616   2.858   0.735
 2240SOL    HW2 6745   2.474   2.931   0.703
 2241SOL     OW 6746   2.548   3.023   1.803
 2241SOL    HW1 6747   2.608   3.102   1.817
 2241SOL    HW2 6748   2.462   3.054   1.762
 2242SOL     OW 6749   2.197   3.297   1.061
 2242SOL    HW1 6750   2.119   3.266   1.008
 2242SOL    HW2 6751   2.255   3.355   1.004
 2243SOL     OW 6752   3.322   3.367   1.339
 2243SOL    HW1 6753   3.346   3.461   1.365
 2243SOL    HW2 6754   3.306   3.313   1.421
 2244SOL     OW 6755   2.300   2.254   1.499
 2244SOL    HW1 6756   2.382   2.198   1.508
 2244SOL    HW2 6757   2.219   2.196   1.503
 2245SOL     OW 6758   3.465   2.309   0.737
 2245SOL    HW1 6759   3.391   2.355   0.687
 2245SOL    HW2 6760   3.516   2.377   0.790
 2246SOL     OW 6761   2.093   3.575   0.483
 2246SOL    HW1 6762   2.127   3.652   0.537
 2246SOL    HW2 6763   2.137   3.575   0.393
 2247SOL     OW 6764   2.989   3.203   1.690
 2247SOL    HW1 6765   3.036   3.203   1.778
 2247SOL    HW2 6766   2.941   3.116   1.679
 2248SOL     OW 6767   2.092   3.296   0.538
 2248SOL    HW1 6768   2.066   3.392   0.538
 2248SOL    HW2 6769   2.021   3.242   0.583
 2249SOL     OW 6770   2.102   2.953   0.886
 2249SOL    HW1 6771   2.116   2.869   0.938
 2249SOL    HW2 6772   2.047   3.017   0.941
 2250SOL     OW 6773   2.482   3.648   1.439
 2250SOL    HW1 6774   2.390   3.631   1.474
 2250SOL    HW2 6775   2.510   3.740   1.465
 2251SOL     OW 6776   2.468   2.826   0.123
 2251SOL    HW1 6777   2.475   2.910   0.069
 2251SOL    HW2 6778   2.514   2.839   0.211
 2252SOL     OW 6779   3.456   1.976   1.480
 2252SOL    HW1 6780   3.438   2.043   1.408
 2252SOL    HW2 6781   3.453   2.022   1.569
 2253SOL     OW 6782   1.984   2.505   0.563
 2253SOL    HW1 6783   1.939   2.417   0.580
 2253SOL    HW2 6784   1.983   2.559   0.647
 2254SOL     OW 6785   3.704   3.629   0.359
 2254SOL    HW1 6786   3.758   3.600   0.439
 2254SOL    HW2 6787   3.734   3.719   0.330
 2255SOL     OW 6788   1.889   3.458   0.117
 2255SOL    HW1 6789   1.870   3.362   0.138
 2255SOL    HW2 6790   1.856   3.516   0.192
 2256SOL     OW 6791   3.551   2.784   0.612
 2256SOL    HW1 6792   3.646   2.755   0.620
 2256SOL    HW2 6793   3.543   2.849   0.537
 2257SOL     OW 6794   3.503   2.970   0.432
 2257SOL    HW1 6795   3.589   2.972   0.380
 2257SOL    HW2 6796   3.517   3.017   0.520
 2258SOL     OW 6797   1.975   2.599   1.597
 2258SOL    HW1 6798   2.063   2.586   1.642
 2258SOL    HW2 6799   1.962   2.696   1.575
 2259SOL     OW 6800   2.475   3.227   0.726
 2259SOL    HW1 6801   2.426   3.140   0.735
 2259SOL    HW2 6802   2.452   3.270   0.639
 2260SOL     OW 6803   3.155   3.090   1.423
 2260SOL    HW1 6804   3.192   3.017   1.365
 2260SOL    HW2 6805   3.207   3.095   1.508
 2261SOL     OW 6806   2.671   1.866   0.502
 2261SOL    HW1 6807   2.711   1.957   0.493
 2261SOL    HW2 6808   2.571   1.874   0.508
 2262SOL     OW 6809   2.059   2.838   1.264
 2262SOL    HW1 6810   2.148   2.793   1.250
 2262SOL    HW2 6811   1.986   2.773   1.245
 2263SOL     OW 6812   3.387   2.861   0.190
 2263SOL    HW1 6813   3.324   2.785   0.203
 2263SOL    HW2 6814   3.435   2.879   0.276
 2264SOL     OW 6815   3.049   3.654   1.616
 2264SOL    HW1 6816   3.073   3.714   1.540
 2264SOL    HW2 6817   3.056   3.559   1.586
 2265SOL     OW 6818   2.179   2.113   1.801
 2265SOL    HW1 6819   2.250   2.184   1.807
 2265SOL    HW2 6820   2.091   2.152   1.829
 2266SOL     OW 6821   3.328   3.279   0.953
 2266SOL    HW1 6822   3.269   3.285   1.033
 2266SOL    HW2 6823   3.313   3.191   0.907
 2267SOL     OW 6824   3.529   3.576   0.572
 2267SOL    HW1 6825   3.488   3.553   0.484
 2267SOL    HW2 6826   3.511   3.502   0.637
 2268SOL     OW 6827   2.460   2.591   0.270
 2268SOL    HW1 6828   2.484   2.660   0.202
 2268SOL    HW2 6829   2.382   2.624   0.324
 2269SOL     OW 6830   3.143   2.207   0.944
 2269SOL    HW1 6831   3.057   2.157   0.931
 2269SOL    HW2 6832   3.205   2.153   1.000
 2270SOL     OW 6833   3.438   3.524   0.307
 2270SOL    HW1 6834   3.527   3.570   0.310
 2270SOL    HW2 6835   3.417   3.500   0.212
 2271SOL     OW 6836   2.669   2.467   1.465
 2271SOL    HW1 6837   2.622   2.464   1.554
 2271SOL    HW2 6838   2.618   2.412   1.399
 2272SOL     OW 6839   3.256   2.331   1.674
 2272SOL    HW1 6840   3.236   2.374   1.762
 2272SOL    HW2 6841   3.334   2.269   1.683
 2273SOL     OW 6842   2.835   2.752   1.572
 2273SOL    HW1 6843   2.881   2.668   1.543
 2273SOL    HW2 6844   2.779   2.786   1.497
 2274SOL     OW 6845   2.853   2.272   1.242
 2274SOL    HW1 6846   2.776   2.306   1.296
 2274SOL    HW2 6847   2.819   2.221   1.163
 2275SOL     OW 6848   2.903   2.563   0.429
 2275SOL    HW1 6849   2.929   2.559   0.525
 2275SOL    HW2 6850   2.818   2.512   0.415
 2276SOL     OW 6851   1.938   2.673   0.789
 2276SOL    HW1 6852   2.037   2.661   0.798
 2276SOL    HW2 6853   1.914   2.768   0.810
 2277SOL     OW 6854   1.992   3.683   1.571
 2277SOL    HW1 6855   1.982   3.668   1.670
 2277SOL    HW2 6856   1.906   3.719   1.535
 2278SOL     OW 6857   2.727   2.210   0.195
 2278SOL    HW1 6858   2.786   2.273   0.146
 2278SOL    HW2 6859   2.746   2.116   0.166
 2279SOL     OW 6860   3.581   2.447   1.831
 2279SOL    HW1 6861   3.555   2.536   1.795
 2279SOL    HW2 6862   3.579   2.379   1.758
 2280SOL     OW 6863   3.224   3.006   0.545
 2280SOL    HW1 6864   3.307   2.977   0.497
 2280SOL    HW2 6865   3.175   3.073   0.489
 2281SOL     OW 6866   2.412   2.058   0.885
 2281SOL    HW1 6867   2.407   2.053   0.985
 2281SOL    HW2 6868   2.414   2.154   0.856
 2282SOL     OW 6869   2.870   3.318   0.477
 2282SOL    HW1 6870   2.824   3.390   0.425
 2282SOL    HW2 6871   2.866   3.338   0.575
 2283SOL     OW 6872   2.213   3.663   0.853
 2283SOL    HW1 6873   2.263   3.577   0.859
 2283SOL    HW2 6874   2.278   3.740   0.850
 2284SOL     OW 6875   3.657   2.928   0.873
 2284SOL    HW1 6876   3.595   2.913   0.797
 2284SOL    HW2 6877   3.605   2.939   0.958
 2285SOL     OW 6878   3.089   3.412   1.506
 2285SOL    HW1 6879   3.095   3.335   1.570
 2285SOL    HW2 6880   3.037   3.386   1.426
 2286SOL     OW 6881   2.183   2.805   0.242
 2286SOL    HW1 6882   2.265   2.844   0.200
 2286SOL    HW2 6883   2.156   2.723   0.193
 2287SOL     OW 6884   3.320   2.597   0.728
 2287SOL    HW1 6885   3.315   2.532   0.803
 2287SOL    HW2 6886   3.400   2.656   0.741
 2288SOL     OW 6887   2.323   3.128   1.727
 2288SOL    HW1 6888   2.273   3.129   1.641
 2288SOL    HW2 6889   2.260   3.110   1.803
 2289SOL     OW 6890   2.973   3.638   0.237
 2289SOL    HW1 6891   2.913   3.576   0.287
 2289SOL    HW2 6892   3.004   3.594   0.152
 2290SOL     OW 6893   2.064   2.147   1.498
 2290SOL    HW1 6894   1.984   2.207   1.485
 2290SOL    HW2 6895   2.054   2.098   1.584
 2291SOL     OW 6896   3.494   3.239   0.081
 2291SOL    HW1 6897   3.462   3.333   0.071
 2291SOL    HW2 6898   3.418   3.176   0.069
 2292SOL     OW 6899   2.326   3.605   0.323
 2292SOL    HW1 6900   2.359   3.644   0.409
 2292SOL    HW2 6901   2.402   3.598   0.258
 2293SOL     OW 6902   3.262   1.969   0.426
 2293SOL    HW1 6903   3.238   1.932   0.336
 2293SOL    HW2 6904   3.361   1.985   0.430
 2294SOL     OW 6905   2.111   3.647   1.241
 2294SOL    HW1 6906   2.168   3.582   1.291
 2294SOL    HW2 6907   2.095   3.614   1.148
 2295SOL     OW 6908   2.802   3.560   0.904
 2295SOL    HW1 6909   2.882   3.503   0.925
 2295SOL    HW2 6910   2.753   3.520   0.827
 2296SOL     OW 6911   2.244   2.562   0.480
 2296SOL    HW1 6912   2.289   2.472   0.477
 2296SOL    HW2 6913   2.150   2.551   0.513
 2297SOL     OW 6914   3.409   2.084   1.729
 2297SOL    HW1 6915   3.404   2.121   1.821
 2297SOL    HW2 6916   3.337   2.015   1.717
 2298SOL     OW 6917   2.643   2.126   1.749
 2298SOL    HW1 6918   2.710   2.065   1.792
 2298SOL    HW2 6919   2.570   2.145   1.814
 2299SOL     OW 6920   2.750   3.376   1.195
 2299SOL    HW1 6921   2.727   3.351   1.101
 2299SOL    HW2 6922   2.811   3.307   1.234
 2300SOL     OW 6923   3.213   2.452   1.433
 2300SOL    HW1 6924   3.241   2.409   1.518
 2300SOL    HW2 6925   3.238   2.548   1.434
 2301SOL     OW 6926   2.665   3.264   0.924
 2301SOL    HW1 6927   2.755   3.278   0.882
 2301SOL    HW2 6928   2.594   3.266   0.853
 2302SOL     OW 6929   2.784   2.365   0.899
 2302SOL    HW1 6930   2.759   2.356   0.803
 2302SOL    HW2 6931   2.832   2.283   0.930
 2303SOL     OW 6932   2.401   1.926   0.512
 2303SOL    HW1 6933   2.320   1.927   0.570
 2303SOL    HW2 6934   2.404   2.009   0.457
 2304SOL     OW 6935   3.296   3.050   0.041
 2304SOL    HW1 6936   3.328   2.974   0.098
 2304SOL    HW2 6937   3.204   3.077   0.071
 2305SOL     OW 6938   2.797   2.098   0.480
 2305SOL    HW1 6939   2.749   2.139   0.402
 2305SOL    HW2 6940   2.896   2.096   0.461
 2306SOL     OW 6941   2.938   2.545   1.464
 2306SOL    HW1 6942   2.858   2.484   1.467
 2306SOL    HW2 6943   3.019   2.492   1.440
 2307SOL     OW 6944   3.089   3.432   0.793
 2307SOL    HW1 6945   3.110   3.506   0.728
 2307SOL    HW2 6946   3.157   3.432   0.866
 2308SOL     OW 6947   2.321   3.014   0.741
 2308SOL    HW1 6948   2.250   2.987   0.806
 2308SOL    HW2 6949   2.295   2.986   0.648
 2309SOL     OW 6950   3.133   3.659   0.591
 2309SOL    HW1 6951   3.177   3.723   0.527
 2309SOL    HW2 6952   3.083   3.711   0.661
 2310SOL     OW 6953   2.894   2.411   0.016
 2310SOL    HW1 6954   2.853   2.493  -0.023
 2310SOL    HW2 6955   2.958   2.437   0.089
 2311SOL     OW 6956   1.940   2.418   1.386
 2311SOL    HW1 6957   2.032   2.417   1.345
 2311SOL    HW2 6958   1.934   2.492   1.453
 2312SOL     OW 6959   2.423   2.084   1.147
 2312SOL    HW1 6960   2.461   2.000   1.184
 2312SOL    HW2 6961   2.335   2.103   1.191
 2313SOL     OW 6962   2.728   2.316   0.642
 2313SOL    HW1 6963   2.696   2.388   0.580
 2313SOL    HW2 6964   2.752   2.235   0.589
 2314SOL     OW 6965   2.879   1.901   0.753
 2314SOL    HW1 6966   2.807   1.906   0.684
 2314SOL    HW2 6967   2.855   1.832   0.822
 2315SOL     OW 6968   3.291   3.035   0.867
 2315SOL    HW1 6969   3.236   2.951   0.860
 2315SOL    HW2 6970   3.317   3.064   0.775
 2316SOL     OW 6971   3.328   2.452   0.992
 2316SOL    HW1 6972   3.298   2.357   0.999
 2316SOL    HW2 6973   3.401   2.468   1.058
 2317SOL     OW 6974   3.719   2.695   0.377
 2317SOL    HW1 6975   3.761   2.631   0.441
 2317SOL    HW2 6976   3.681   2.644   0.299
 2318SOL     OW 6977   2.350   3.247   0.174
 2318SOL    HW1 6978   2.263   3.232   0.221
 2318SOL    HW2 6979   2.333   3.273   0.079
 2319SOL     OW 6980   3.526   3.142   0.657
 2319SOL    HW1 6981   3.625   3.150   0.671
 2319SOL    HW2 6982   3.481   3.226   0.688
 2320SOL     OW 6983   3.252   2.437   0.078
 2320SOL    HW1 6984   3.198   2.416   0.159
 2320SOL    HW2 6985   3.343   2.396   0.087
 2321SOL     OW 6986   2.389   2.118   0.328
 2321SOL    HW1 6987   2.416   2.059   0.253
 2321SOL    HW2 6988   2.389   2.213   0.297
 2322SOL     OW 6989   3.616   3.085   1.588
 2322SOL    HW1 6990   3.707   3.046   1.575
 2322SOL    HW2 6991   3.624   3.181   1.612
 2323SOL     OW 6992   2.926   3.209   1.340
 2323SOL    HW1 6993   2.846   3.186   1.395
 2323SOL    HW2 6994   3.009   3.183   1.389
 2324SOL     OW 6995   3.454   3.491   1.625
 2324SOL    HW1 6996   3.481   3.525   1.535
 2324SOL    HW2 6997   3.533   3.453   1.671
 2325SOL     OW 6998   2.973   3.057   1.100
 2325SOL    HW1 6999   2.933   3.101   1.181
 2325SOL    HW2 7000   2.932   3.094   1.017
 2326SOL     OW 7001   3.500   2.961   1.079
 2326SOL    HW1 7002   3.505   3.042   1.138
 2326SOL    HW2 7003   3.414   2.963   1.028
 2327SOL     OW 7004   2.777   1.951   1.402
 2327SOL    HW1 7005   2.802   1.931   1.307
 2327SOL    HW2 7006   2.849   2.007   1.444
 2328SOL     OW 7007   2.842   2.978   1.719
 2328SOL    HW1 7008   2.743   2.984   1.729
 2328SOL    HW2 7009   2.865   2.898   1.663
 2329SOL     OW 7010   2.567   2.912   0.368
 2329SOL    HW1 7011   2.553   2.919   0.467
 2329SOL    HW2 7012   2.651   2.861   0.350
 2330SOL     OW 7013   2.272   2.675   1.251
 2330SOL    HW1 7014   2.358   2.687   1.301
 2330SOL    HW2 7015   2.230   2.588   1.278
 2331SOL     OW 7016   3.136   2.248   1.262
 2331SOL    HW1 7017   3.157   2.322   1.326
 2331SOL    HW2 7018   3.047   2.265   1.219
 2332SOL     OW 7019   1.926   3.426   1.331
 2332SOL    HW1 7020   1.880   3.508   1.297
 2332SOL    HW2 7021   2.024   3.445   1.340
 2333SOL     OW 7022   2.229   2.962   0.501
 2333SOL    HW1 7023   2.222   3.045   0.445
 2333SOL    HW2 7024   2.233   2.882   0.441
 2334SOL     OW 7025   2.428   2.399   0.865
 2334SOL    HW1 7026   2.440   2.465   0.791
 2334SOL    HW2 7027   2.474   2.433   0.948
 2335SOL     OW 7028   3.114   3.210   0.388
 2335SOL    HW1 7029   3.164   3.287   0.428
 2335SOL    HW2 7030   3.019   3.212   0.420
 2336SOL     OW 7031   3.134   3.307   1.142
 2336SOL    HW1 7032   3.181   3.320   1.229
 2336SOL    HW2 7033   3.068   3.233   1.151
 2337SOL     OW 7034   3.444   2.501   0.472
 2337SOL    HW1 7035   3.413   2.562   0.545
 2337SOL    HW2 7036   3.494   2.553   0.403
 2338SOL     OW 7037   2.216   3.372   1.329
 2338SOL    HW1 7038   2.195   3.328   1.242
 2338SOL    HW2 7039   2.313   3.398   1.332
 2339SOL     OW 7040   2.264   2.613   1.598
 2339SOL    HW1 7041   2.332   2.668   1.551
 2339SOL    HW2 7042   2.304   2.525   1.625
 2340SOL     OW 7043   3.449   2.641   1.670
 2340SOL    HW1 7044   3.357   2.679   1.665
 2340SOL    HW2 7045   3.509   2.688   1.605
 2341SOL     OW 7046   2.875   1.967   1.770
 2341SOL    HW1 7047   2.881   2.052   1.718
 2341SOL    HW2 7048   2.907   1.891   1.713
 2342SOL     OW 7049   2.366   1.912   1.740
 2342SOL    HW1 7050   2.324   1.855   1.670
 2342SOL    HW2 7051   2.300   1.981   1.772
 2343SOL     OW 7052   2.435   2.732   1.029
 2343SOL    HW1 7053   2.479   2.821   1.020
 2343SOL    HW2 7054   2.372   2.732   1.106
 2344SOL     OW 7055   3.222   2.724   1.045
 2344SOL    HW1 7056   3.147   2.724   0.979
 2344SOL    HW2 7057   3.259   2.632   1.054
 2345SOL     OW 7058   3.071   2.387   0.275
 2345SOL    HW1 7059   3.084   2.303   0.329
 2345SOL    HW2 7060   3.042   2.461   0.335
 2346SOL     OW 7061   2.169   2.075   1.231
 2346SOL    HW1 7062   2.146   2.112   1.321
 2346SOL    HW2 7063   2.139   1.980   1.225
 2347SOL     OW 7064   1.899   3.172   1.282
 2347SOL    HW1 7065   1.952   3.123   1.350
 2347SOL    HW2 7066   1.921   3.270   1.287
 2348SOL     OW 7067   2.594   2.496   1.064
 2348SOL    HW1 7068   2.653   2.470   0.988
 2348SOL    HW2 7069   2.566   2.592   1.053
 2349SOL     OW 7070   3.590   2.797   1.854
 2349SOL    HW1 7071   3.544   2.790   1.765
 2349SOL    HW2 7072   3.528   2.841   1.920
 2350SOL     OW 7073   2.169   1.925   0.618
 2350SOL    HW1 7074   2.158   2.019   0.651
 2350SOL    HW2 7075   2.164   1.862   0.695
 2351SOL     OW 7076   3.484   2.229   0.374
 2351SOL    HW1 7077   3.486   2.153   0.438
 2351SOL    HW2 7078   3.436   2.306   0.414
 2352SOL     OW 7079   2.885   2.628   0.966
 2352SOL    HW1 7080   2.900   2.649   1.062
 2352SOL    HW2 7081   2.855   2.533   0.957
 2353SOL     OW 7082   2.842   3.435   1.700
 2353SOL    HW1 7083   2.822   3.479   1.612
 2353SOL    HW2 7084   2.881   3.344   1.684
 2354SOL     OW 7085   3.721   3.380   1.605
 2354SOL    HW1 7086   3.735   3.407   1.510
 2354SOL    HW2 7087   3.804   3.402   1.658
 2355SOL     OW 7088   2.212   2.760   1.804
 2355SOL    HW1 7089   2.288   2.804   1.852
 2355SOL    HW2 7090   2.247   2.713   1.722
 2356SOL     OW 7091   3.402   2.136   0.125
 2356SOL    HW1 7092   3.341   2.061   0.148
 2356SOL    HW2 7093   3.424   2.188   0.208
 2357SOL     OW 7094   3.165   2.700   0.042
 2357SOL    HW1 7095   3.199   2.607   0.057
 2357SOL    HW2 7096   3.183   2.727  -0.053
 2358SOL     OW 7097   2.930   3.195   0.849
 2358SOL    HW1 7098   2.937   3.111   0.794
 2358SOL    HW2 7099   2.992   3.264   0.813
 2359SOL     OW 7100   2.181   2.672   0.949
 2359SOL    HW1 7101   2.274   2.708   0.954
 2359SOL    HW2 7102   2.175   2.587   1.001
 2360SOL     OW 7103   2.201   2.371   1.006
 2360SOL    HW1 7104   2.149   2.288   0.989
 2360SOL    HW2 7105   2.278   2.376   0.942
 2361SOL     OW 7106   3.000   2.242   1.678
 2361SOL    HW1 7107   2.955   2.305   1.742
 2361SOL    HW2 7108   3.093   2.273   1.661
 2362SOL     OW 7109   3.022   2.069   1.477
 2362SOL    HW1 7110   3.022   2.133   1.554
 2362SOL    HW2 7111   3.050   2.117   1.394
 2363SOL     OW 7112   1.950   3.663   0.927
 2363SOL    HW1 7113   1.908   3.577   0.900
 2363SOL    HW2 7114   2.044   3.666   0.893
 2364SOL     OW 7115   2.366   3.430   0.910
 2364SOL    HW1 7116   2.432   3.504   0.919
 2364SOL    HW2 7117   2.410   3.351   0.868
 2365SOL     OW 7118   2.864   2.658   1.238
 2365SOL    HW1 7119   2.905   2.626   1.324
 2365SOL    HW2 7120   2.768   2.631   1.235
 2366SOL     OW 7121   1.902   2.406   1.114
 2366SOL    HW1 7122   1.987   2.373   1.073
 2366SOL    HW2 7123   1.915   2.421   1.212
 2367SOL     OW 7124   2.051   2.382   1.722
 2367SOL    HW1 7125   2.110   2.342   1.652
 2367SOL    HW2 7126   1.993   2.453   1.681
 2368SOL     OW 7127   3.231   2.812   1.660
 2368SOL    HW1 7128   3.270   2.901   1.680
 2368SOL    HW2 7129   3.241   2.792   1.563
 2369SOL     OW 7130   2.677   2.434   0.325
 2369SOL    HW1 7131   2.684   2.345   0.279
 2369SOL    HW2 7132   2.583   2.468   0.317
 2370SOL     OW 7133   3.519   2.466   1.206
 2370SOL    HW1 7134   3.481   2.397   1.268
 2370SOL    HW2 7135   3.601   2.430   1.162
 2371SOL     OW 7136   2.114   3.426   1.744
 2371SOL    HW1 7137   2.084   3.483   1.820
 2371SOL    HW2 7138   2.107   3.329   1.770
 2372SOL     OW 7139   2.533   2.326   1.269
 2372SOL    HW1 7140   2.499   2.237   1.239
 2372SOL    HW2 7141   2.559   2.380   1.189
 2373SOL     OW 7142   2.792   3.540   1.465
 2373SOL    HW1 7143   2.768   3.522   1.370
 2373SOL    HW2 7144   2.822   3.634   1.475
 2374SOL     OW 7145   2.335   2.362   0.191
 2374SOL    HW1 7146   2.396   2.442   0.195
 2374SOL    HW2 7147   2.240   2.393   0.198
 2375SOL     OW 7148   2.021   2.999   1.466
 2375SOL    HW1 7149   2.043   2.938   1.542
 2375SOL    HW2 7150   2.031   2.950   1.380
 2376SOL     OW 7151   3.209   2.921   1.234
 2376SOL    HW1 7152   3.233   2.858   1.160
 2376SOL    HW2 7153   3.119   2.961   1.216
 2377SOL     OW 7154   3.164   2.717   0.309
 2377SOL    HW1 7155   3.078   2.686   0.351
 2377SOL    HW2 7156   3.160   2.703   0.210
 2378SOL     OW 7157   3.621   3.609   1.154
 2378SOL    HW1 7158   3.682   3.639   1.081
 2378SOL    HW2 7159   3.583   3.520   1.132
 2379SOL     OW 7160   3.114   3.593   1.128
 2379SOL    HW1 7161   3.198   3.598   1.074
 2379SOL    HW2 7162   3.091   3.497   1.146
 2380SOL     OW 7163   1.945   3.120   1.022
 2380SOL    HW1 7164   1.940   3.119   1.122
 2380SOL    HW2 7165   1.862   3.079   0.984
 2381SOL     OW 7166   2.550   3.524   1.716
 2381SOL    HW1 7167   2.494   3.605   1.725
 2381SOL    HW2 7168   2.602   3.528   1.630
 2382SOL     OW 7169   2.765   1.948   0.133
 2382SOL    HW1 7170   2.816   1.949   0.047
 2382SOL    HW2 7171   2.821   1.906   0.204
 2383SOL     OW 7172   3.588   1.997   0.523
 2383SOL    HW1 7173   3.661   1.980   0.456
 2383SOL    HW2 7174   3.557   1.910   0.561
 2384SOL     OW 7175   3.250   3.435   0.477
 2384SOL    HW1 7176   3.317   3.447   0.403
 2384SOL    HW2 7177   3.210   3.524   0.500
 2385SOL     OW 7178   1.992   3.656   1.851
 2385SOL    HW1 7179   1.951   3.582   1.904
 2385SOL    HW2 7180   2.056   3.707   1.909
 2386SOL     OW 7181   3.142   2.789   0.672
 2386SOL    HW1 7182   3.202   2.708   0.674
 2386SOL    HW2 7183   3.182   2.858   0.612
 2387SOL     OW 7184   2.692   3.135   1.422
 2387SOL    HW1 7185   2.687   3.168   1.517
 2387SOL    HW2 7186   2.606   3.154   1.376
 2388SOL     OW 7187   2.534   3.478   0.154
 2388SOL    HW1 7188   2.543   3.488   0.055
 2388SOL    HW2 7189   2.494   3.389   0.175
 2389SOL     OW 7190   3.512   3.582   1.394
 2389SOL    HW1 7191   3.565   3.592   1.310
 2389SOL    HW2 7192   3.485   3.672   1.428
 2390SOL     OW 7193   3.703   2.037   0.963
 2390SOL    HW1 7194   3.742   1.952   0.927
 2390SOL    HW2 7195   3.605   2.039   0.944
 2391SOL     OW 7196   2.125   2.188   0.720
 2391SOL    HW1 7197   2.046   2.239   0.686
 2391SOL    HW2 7198   2.116   2.173   0.818
 2392SOL     OW 7199   3.056   3.474   0.031
 2392SOL    HW1 7200   3.062   3.381   0.068
 2392SOL    HW2 7201   2.997   3.474  -0.049
 2393SOL     OW 7202   2.684   2.864   1.372
 2393SOL    HW1 7203   2.724   2.863   1.280
 2393SOL    HW2 7204   2.694   2.956   1.412
 2394SOL     OW 7205   2.778   2.772   0.291
 2394SOL    HW1 7206   2.841   2.810   0.223
 2394SOL    HW2 7207   2.818   2.689   0.330
 2395SOL     OW 7208   3.366   3.469   0.044
 2395SOL    HW1 7209   3.274   3.506   0.051
 2395SOL    HW2 7210   3.404   3.489  -0.046
 2396SOL     OW 7211   2.234   3.150   1.490
 2396SOL    HW1 7212   2.221   3.243   1.456
 2396SOL    HW2 7213   2.150   3.098   1.477
 2397SOL     OW 7214   3.476   3.154   1.289
 2397SOL    HW1 7215   3.536   3.157   1.369
 2397SOL    HW2 7216   3.401   3.218   1.302
 2398SOL     OW 7217   2.901   2.960   0.696
 2398SOL    HW1 7218   2.831   2.913   0.750
 2398SOL    HW2 7219   2.960   2.892   0.653
 2399SOL     OW 7220   2.876   2.098   0.971
 2399SOL    HW1 7221   2.868   2.062   0.878
 2399SOL    HW2 7222   2.874   2.022   1.036
 2400SOL     OW 7223   2.452   3.349   0.491
 2400SOL    HW1 7224   2.494   3.291   0.421
 2400SOL    HW2 7225   2.408   3.428   0.447
 2401SOL     OW 7226   3.571   2.247   1.381
 2401SOL    HW1 7227   3.644   2.316   1.385
 2401SOL    HW2 7228   3.599   2.172   1.322
 2402SOL     OW 7229   2.117   3.210   0.290
 2402SOL    HW1 7230   2.021   3.211   0.263
 2402SOL    HW2 7231   2.129   3.263   0.374
 2403SOL     OW 7232   1.967   2.875   1.726
 2403SOL    HW1 7233   1.890   2.842   1.780
 2403SOL    HW2 7234   2.052   2.845   1.768
 2404SOL     OW 7235   2.534   2.065   1.489
 2404SOL    HW1 7236   2.624   2.049   1.449
 2404SOL    HW2 7237   2.542   2.070   1.588
 2405SOL     OW 7238   1.937   2.207   0.033
 2405SOL    HW1 7239   1.845   2.179   0.004
 2405SOL    HW2 7240   1.968   2.284  -0.023
 2406SOL     OW 7241   3.302   2.718   1.398
 2406SOL    HW1 7242   3.245   2.770   1.335
 2406SOL    HW2 7243   3.398   2.730   1.374
 2407SOL     OW 7244   1.934   2.028   0.318
 2407SOL    HW1 7245   1.917   2.111   0.264
 2407SOL    HW2 7246   2.024   1.991   0.296
 2408SOL     OW 7247   3.045   3.197   0.119
 2408SOL    HW1 7248   2.946   3.186   0.121
 2408SOL    HW2 7249   3.079   3.212   0.212
 2409SOL     OW 7250   2.475   2.704   1.431
 2409SOL    HW1 7251   2.531   2.785   1.414
 2409SOL    HW2 7252   2.534   2.624   1.434
 2410SOL     OW 7253   3.355   3.629   0.959
 2410SOL    HW1 7254   3.388   3.693   0.890
 2410SOL    HW2 7255   3.421   3.623   1.034
 2411SOL     OW 7256   2.578   2.427   1.708
 2411SOL    HW1 7257   2.597   2.492   1.782
 2411SOL    HW2 7258   2.638   2.347   1.717
 2412SOL     OW 7259   3.312   3.082   1.633
 2412SOL    HW1 7260   3.303   3.072   1.732
 2412SOL    HW2 7261   3.408   3.075   1.607
 2413SOL     OW 7262   2.252   3.603   1.560
 2413SOL    HW1 7263   2.161   3.644   1.558
 2413SOL    HW2 7264   2.245   3.509   1.592
 2414SOL     OW 7265   3.536   2.745   1.254
 2414SOL    HW1 7266   3.509   2.656   1.217
 2414SOL    HW2 7267   3.537   2.813   1.181
 2415SOL     OW 7268   3.087   2.187   0.449
 2415SOL    HW1 7269   3.152   2.113   0.438
 2415SOL    HW2 7270   3.107   2.237   0.533
 2416SOL     OW 7271   2.456   2.607   0.652
 2416SOL    HW1 7272   2.506   2.692   0.633
 2416SOL    HW2 7273   2.368   2.609   0.604
 2417SOL     OW 7274   3.639   2.204   1.642
 2417SOL    HW1 7275   3.622   2.235   1.548
 2417SOL    HW2 7276   3.555   2.167   1.680
 2418SOL     OW 7277   3.592   2.796   1.517
 2418SOL    HW1 7278   3.630   2.887   1.532
 2418SOL    HW2 7279   3.584   2.779   1.418
 2419SOL     OW 7280   2.721   3.236   0.016
 2419SOL    HW1 7281   2.675   3.251   0.104
 2419SOL    HW2 7282   2.765   3.321  -0.014
 2420SOL     OW 7283   2.523   3.652   0.953
 2420SOL    HW1 7284   2.477   3.740   0.940
 2420SOL    HW2 7285   2.622   3.664   0.946
 2421SOL     OW 7286   2.721   2.818   0.861
 2421SOL    HW1 7287   2.775   2.749   0.909
 2421SOL    HW2 7288   2.689   2.887   0.927
 2422SOL     OW 7289   2.945   2.846   0.087
 2422SOL    HW1 7290   2.922   2.899   0.005
 2422SOL    HW2 7291   3.026   2.790   0.068
 2423SOL     OW 7292   3.723   3.431   0.851
 2423SOL    HW1 7293   3.652   3.419   0.781
 2423SOL    HW2 7294   3.724   3.352   0.911
 2424SOL     OW 7295   2.083   3.176   1.844
 2424SOL    HW1 7296   2.018   3.103   1.823
 2424SOL    HW2 7297   2.087   3.190   1.942
 2425SOL     OW 7298   1.941   3.102   0.653
 2425SOL    HW1 7299   1.940   3.055   0.741
 2425SOL    HW2 7300   2.023   3.074   0.602
 2426SOL     OW 7301   2.534   3.253   1.624
 2426SOL    HW1 7302   2.456   3.203   1.662
 2426SOL    HW2 7303   2.531   3.348   1.655
 2427SOL     OW 7304   3.686   2.054   1.227
 2427SOL    HW1 7305   3.682   1.964   1.271
 2427SOL    HW2 7306   3.689   2.043   1.128
 2428SOL     OW 7307   2.290   2.286   0.520
 2428SOL    HW1 7308   2.320   2.214   0.458
 2428SOL    HW2 7309   2.251   2.246   0.603
 2429SOL     OW 7310   3.567   3.349   1.104
 2429SOL    HW1 7311   3.474   3.324   1.077
 2429SOL    HW2 7312   3.593   3.299   1.186
 2430SOL     OW 7313   2.179   2.409   1.280
 2430SOL    HW1 7314   2.217   2.350   1.352
 2430SOL    HW2 7315   2.219   2.383   1.192
 2431SOL     OW 7316   2.674   3.448   0.687
 2431SOL    HW1 7317   2.706   3.458   0.593
 2431SOL    HW2 7318   2.595   3.386   0.689
 2432SOL     OW 7319   3.286   2.076   1.112
 2432SOL    HW1 7320   3.338   2.011   1.167
 2432SOL    HW2 7321   3.237   2.139   1.173
 2433SOL     OW 7322   2.863   1.896   1.154
 2433SOL    HW1 7323   2.800   1.824   1.123
 2433SOL    HW2 7324   2.956   1.860   1.154
 2434SOL     OW 7325   2.632   3.192   0.301
 2434SOL    HW1 7326   2.586   3.105   0.318
 2434SOL    HW2 7327   2.723   3.189   0.342
 2435SOL     OW 7328   2.480   3.429   1.284
 2435SOL    HW1 7329   2.475   3.511   1.341
 2435SOL    HW2 7330   2.569   3.426   1.239
 2436SOL     OW 7331   3.214   1.914   0.168
 2436SOL    HW1 7332   3.249   1.873   0.084
 2436SOL    HW2 7333   3.124   1.876   0.188
 2437SOL     OW 7334   3.162   2.315   0.691
 2437SOL    HW1 7335   3.103   2.395   0.695
 2437SOL    HW2 7336   3.177   2.280   0.784
 2438SOL     OW 7337   3.455   2.083   0.882
 2438SOL    HW1 7338   3.371   2.082   0.936
 2438SOL    HW2 7339   3.457   2.166   0.826
 2439SOL     OW 7340   1.901   2.939   0.300
 2439SOL    HW1 7341   2.000   2.928   0.291
 2439SOL    HW2 7342   1.861   2.853   0.332
 2440SOL     OW 7343   2.737   3.508   0.337
 2440SOL    HW1 7344   2.660   3.473   0.283
 2440SOL    HW2 7345   2.705   3.579   0.399
 2441SOL     OW 7346   2.092   2.490   1.975
 2441SOL    HW1 7347   1.999   2.488   2.012
 2441SOL    HW2 7348   2.093   2.451   1.883
 2442SOL     OW 7349   2.087   2.137   2.858
 2442SOL    HW1 7350   2.122   2.120   2.950
 2442SOL    HW2 7351   1.999   2.092   2.846
 2443SOL     OW 7352   1.881   2.230   2.509
 2443SOL    HW1 7353   1.799   2.273   2.548
 2443SOL    HW2 7354   1.853   2.157   2.446
 2444SOL     OW 7355   2.431   3.137   3.027
 2444SOL    HW1 7356   2.338   3.130   2.990
 2444SOL    HW2 7357   2.442   3.226   3.071
 2445SOL     OW 7358   3.417   3.373   2.565
 2445SOL    HW1 7359   3.360   3.357   2.646
 2445SOL    HW2 7360   3.358   3.383   2.485
 2446SOL     OW 7361   3.617   2.469   2.093
 2446SOL    HW1 7362   3.605   2.456   1.994
 2446SOL    HW2 7363   3.587   2.388   2.142
 2447SOL     OW 7364   2.630   3.006   2.885
 2447SOL    HW1 7365   2.552   3.023   2.945
 2447SOL    HW2 7366   2.664   3.093   2.849
 2448SOL     OW 7367   2.712   2.660   3.685
 2448SOL    HW1 7368   2.708   2.736   3.750
 2448SOL    HW2 7369   2.734   2.696   3.594
 2449SOL     OW 7370   2.547   2.874   2.527
 2449SOL    HW1 7371   2.616   2.858   2.597
 2449SOL    HW2 7372   2.474   2.931   2.565
 2450SOL     OW 7373   2.548   3.023   3.665
 2450SOL    HW1 7374   2.608   3.102   3.679
 2450SOL    HW2 7375   2.462   3.054   3.624
 2451SOL     OW 7376   2.197   3.297   2.923
 2451SOL    HW1 7377   2.119   3.266   2.870
 2451SOL    HW2 7378   2.255   3.355   2.866
 2452SOL     OW 7379   3.322   3.367   3.201
 2452SOL    HW1 7380   3.346   3.461   3.227
 2452SOL    HW2 7381   3.306   3.313   3.283
 2453SOL     OW 7382   2.300   2.254   3.361
 2453SOL    HW1 7383   2.382   2.198   3.370
 2453SOL    HW2 7384   2.219   2.196   3.365
 2454SOL     OW 7385   3.465   2.309   2.599
 2454SOL    HW1 7386   3.391   2.355   2.549
 2454SOL    HW2 7387   3.516   2.377   2.652
 2455SOL     OW 7388   2.093   3.575   2.345
 2455SOL    HW1 7389   2.127   3.652   2.399
 2455SOL    HW2 7390   2.137   3.575   2.255
 2456SOL     OW 7391   2.989   3.203   3.552
 2456SOL    HW1 7392   3.036   3.203   3.640
 2456SOL    HW2 7393   2.941   3.116   3.541
 2457SOL     OW 7394   2.092   3.296   2.400
 2457SOL    HW1 7395   2.066   3.392   2.400
 2457SOL    HW2 7396   2.021   3.242   2.445
 2458SOL     OW 7397   2.102   2.953   2.748
 2458SOL    HW1 7398   2.116   2.869   2.800
 2458SOL    HW2 7399   2.047   3.017   2.803
 2459SOL     OW 7400   2.482   3.648   3.301
 2459SOL    HW1 7401   2.390   3.631   3.336
 2459SOL    HW2 7402   2.510   3.740   3.327
 2460SOL     OW 7403   2.468   2.826   1.985
 2460SOL    HW1 7404   2.475   2.910   1.931
 2460SOL    HW2 7405   2.514   2.839   2.073
 2461SOL     OW 7406   3.456   1.976   3.342
 2461SOL    HW1 7407   3.438   2.043   3.270
 2461SOL    HW2 7408   3.453   2.022   3.431
 2462SOL     OW 7409   1.984   2.505   2.425
 2462SOL    HW1 7410   1.939   2.417   2.442
 2462SOL    HW2 7411   1.983   2.559   2.509
 2463SOL     OW 7412   3.704   3.629   2.221
 2463SOL    HW1 7413   3.758   3.600   2.301
 2463SOL    HW2 7414   3.734   3.719   2.192
 2464SOL     OW 7415   1.889   3.458   1.979
 2464SOL    HW1 7416   1.870   3.362   2.000
 2464SOL    HW2 7417   1.856   3.516   2.054
 2465SOL     OW 7418   3.551   2.784   2.474
 2465SOL    HW1 7419   3.646   2.755   2.482
 2465SOL    HW2 7420   3.543   2.849   2.399
 2466SOL     OW 7421   3.503   2.970   2.294
 2466SOL    HW1 7422   3.589   2.972   2.242
 2466SOL    HW2 7423   3.517   3.017   2.382
 2467SOL     OW 7424   1.975   2.599   3.459
 2467SOL    HW1 7425   2.063   2.586   3.504
 2467SOL    HW2 7426   1.962   2.696   3.437
 2468SOL     OW 7427   2.475   3.227   2.588
 2468SOL    HW1 7428   2.426   3.140   2.597
 2468SOL    HW2 7429   2.452   3.270   2.501
 2469SOL     OW 7430   3.155   3.090   3.285
 2469SOL    HW1 7431   3.192   3.017   3.227
 2469SOL    HW2 7432   3.207   3.095   3.370
 2470SOL     OW 7433   2.671   1.866   2.364
 2470SOL    HW1 7434   2.711   1.957   2.355
 2470SOL    HW2 7435   2.571   1.874   2.370
 2471SOL     OW 7436   2.059   2.838   3.126
 2471SOL    HW1 7437   2.148   2.793   3.112
 2471SOL    HW2 7438   1.986   2.773   3.107
 2472SOL     OW 7439   3.387   2.861   2.052
 2472SOL    HW1 7440   3.324   2.785   2.065
 2472SOL    HW2 7441   3.435   2.879   2.138
 2473SOL     OW 7442   3.049   3.654   3.478
 2473SOL    HW1 7443   3.073   3.714   3.402
 2473SOL    HW2 7444   3.056   3.559   3.448
 2474SOL     OW 7445   2.179   2.113   3.663
 2474SOL    HW1 7446   2.250   2.184   3.669
 2474SOL    HW2 7447   2.091   2.152   3.691
 2475SOL     OW 7448   3.328   3.279   2.815
 2475SOL    HW1 7449   3.269   3.285   2.895
 2475SOL    HW2 7450   3.313   3.191   2.769
 2476SOL     OW 7451   3.529   3.576   2.434
 2476SOL    HW1 7452   3.488   3.553   2.346
 2476SOL    HW2 7453   3.511   3.502   2.499
 2477SOL     OW 7454   3.143   2.207   2.806
 2477SOL    HW1 7455   3.057   2.157   2.793
 2477SOL    HW2 7456   3.205   2.153   2.862
 2478SOL     OW 7457   3.438   3.524   2.169
 2478SOL    HW1 7458   3.527   3.570   2.172
 2478SOL    HW2 7459   3.417   3.500   2.074
 2479SOL     OW 7460   2.669   2.467   3.327
 2479SOL    HW1 7461   2.622   2.464   3.416
 2479SOL    HW2 7462   2.618   2.412   3.261
 2480SOL     OW 7463   3.256   2.331   3.536
 2480SOL    HW1 7464   3.236   2.374   3.624
 2480SOL    HW2 7465   3.334   2.269   3.545
 2481SOL     OW 7466   2.835   2.752   3.434
 2481SOL    HW1 7467   2.881   2.668   3.405
 2481SOL    HW2 7468   2.779   2.786   3.359
 2482SOL     OW 7469   2.853   2.272   3.104
 2482SOL    HW1 7470   2.776   2.306   3.158
 2482SOL    HW2 7471   2.819   2.221   3.025
 2483SOL     OW 7472   1.938   2.673   2.651
 2483SOL    HW1 7473   2.037   2.661   2.660
 2483SOL    HW2 7474   1.914   2.768   2.672
 2484SOL     OW 7475   1.992   3.683   3.433
 2484SOL    HW1 7476   1.982   3.668   3.532
 2484SOL    HW2 7477   1.906   3.719   3.397
 2485SOL     OW 7478   2.727   2.210   2.057
 2485SOL    HW1 7479   2.786   2.273   2.008
 2485SOL    HW2 7480   2.746   2.116   2.028
 2486SOL     OW 7481   3.581   2.447   3.693
 2486SOL    HW1 7482   3.555   2.536   3.657
 2486SOL    HW2 7483   3.579   2.379   3.620
 2487SOL     OW 7484   3.224   3.006   2.407
 2487SOL    HW1 7485   3.307   2.977   2.359
 2487SOL    HW2 7486   3.175   3.073   2.351
 2488SOL     OW 7487   2.412   2.058   2.747
 2488SOL    HW1 7488   2.407   2.053   2.847
 2488SOL    HW2 7489   2.414   2.154   2.718
 2489SOL     OW 7490   2.870   3.318   2.339
 2489SOL    HW1 7491   2.824   3.390   2.287
 2489SOL    HW2 7492   2.866   3.338   2.437
 2490SOL     OW 7493   2.213   3.663   2.715
 2490SOL    HW1 7494   2.263   3.577   2.721
 2490SOL    HW2 7495   2.278   3.740   2.712
 2491SOL     OW 7496   3.657   2.928   2.735
 2491SOL    HW1 7497   3.595   2.913   2.659
 2491SOL    HW2 7498   3.605   2.939   2.820
 2492SOL     OW 7499   3.089   3.412   3.368
 2492SOL    HW1 7500   3.095   3.335   3.432
 2492SOL    HW2 7501   3.037   3.386   3.288
 2493SOL     OW 7502   2.183   2.805   2.104
 2493SOL    HW1 7503   2.265   2.844   2.062
 2493SOL    HW2 7504   2.156   2.723   2.055
 2494SOL     OW 7505   3.320   2.597   2.590
 2494SOL    HW1 7506   3.315   2.532   2.665
 2494SOL    HW2 7507   3.400   2.656   2.603
 2495SOL     OW 7508   2.323   3.128   3.589
 2495SOL    HW1 7509   2.273   3.129   3.503
 2495SOL    HW2 7510   2.260   3.110   3.665
 2496SOL     OW 7511   2.973   3.638   2.099
 2496SOL    HW1 7512   2.913   3.576   2.149
 2496SOL    HW2 7513   3.004   3.594   2.014
 2497SOL     OW 7514   2.064   2.147   3.360
 2497SOL    HW1 7515   1.984   2.207   3.347
 2497SOL    HW2 7516   2.054   2.098   3.446
 2498SOL     OW 7517   3.494   3.239   1.943
 2498SOL    HW1 7518   3.462   3.333   1.933
 2498SOL    HW2 7519   3.418   3.176   1.931
 2499SOL     OW 7520   2.326   3.605   2.185
 2499SOL    HW1 7521   2.359   3.644   2.271
 2499SOL    HW2 7522   2.402   3.598   2.120
 2500SOL     OW 7523   3.262   1.969   2.288
 2500SOL    HW1 7524   3.238   1.932   2.198
 2500SOL    HW2 7525   3.361   1.985   2.292
 2501SOL     OW 7526   2.111   3.647   3.103
 2501SOL    HW1 7527   2.168   3.582   3.153
 2501SOL    HW2 7528   2.095   3.614   3.010
 2502SOL     OW 7529   2.802   3.560   2.766
 2502SOL    HW1 7530   2.882   3.503   2.787
 2502SOL    HW2 7531   2.753   3.520   2.689
 2503SOL     OW 7532   3.409   2.084   3.591
 2503SOL    HW1 7533   3.404   2.121   3.683
 2503SOL    HW2 7534   3.337   2.015   3.579
 2504SOL     OW 7535   2.476   1.984   1.979
 2504SOL    HW1 7536   2.574   1.962   1.986
 2504SOL    HW2 7537   2.445   1.967   1.886
 2505SOL     OW 7538   2.643   2.126   3.611
 2505SOL    HW1 7539   2.710   2.065   3.654
 2505SOL    HW2 7540   2.570   2.145   3.676
 2506SOL     OW 7541   2.750   3.376   3.057
 2506SOL    HW1 7542   2.727   3.351   2.963
 2506SOL    HW2 7543   2.811   3.307   3.096
 2507SOL     OW 7544   3.213   2.452   3.295
 2507SOL    HW1 7545   3.241   2.409   3.380
 2507SOL    HW2 7546   3.238   2.548   3.296
 2508SOL     OW 7547   2.665   3.264   2.786
 2508SOL    HW1 7548   2.755   3.278   2.744
 2508SOL    HW2 7549   2.594   3.266   2.715
 2509SOL     OW 7550   2.401   1.926   2.374
 2509SOL    HW1 7551   2.320   1.927   2.432
 2509SOL    HW2 7552   2.404   2.009   2.319
 2510SOL     OW 7553   3.296   3.050   1.903
 2510SOL    HW1 7554   3.328   2.974   1.960
 2510SOL    HW2 7555   3.204   3.077   1.933
 2511SOL     OW 7556   2.159   1.897   2.033
 2511SOL    HW1 7557   2.208   1.981   2.012
 2511SOL    HW2 7558   2.221   1.832   2.078
 2512SOL     OW 7559   2.797   2.098   2.342
 2512SOL    HW1 7560   2.749   2.139   2.264
 2512SOL    HW2 7561   2.896   2.096   2.323
 2513SOL     OW 7562   2.938   2.545   3.326
 2513SOL    HW1 7563   2.858   2.484   3.329
 2513SOL    HW2 7564   3.019   2.492   3.302
 2514SOL     OW 7565   3.089   3.432   2.655
 2514SOL    HW1 7566   3.110   3.506   2.590
 2514SOL    HW2 7567   3.157   3.432   2.728
 2515SOL     OW 7568   2.321   3.014   2.603
 2515SOL    HW1 7569   2.250   2.987   2.668
 2515SOL    HW2 7570   2.295   2.986   2.510
 2516SOL     OW 7571   3.133   3.659   2.453
 2516SOL    HW1 7572   3.177   3.723   2.389
 2516SOL    HW2 7573   3.083   3.711   2.523
 2517SOL     OW 7574   2.894   2.411   1.878
 2517SOL    HW1 7575   2.853   2.493   1.839
 2517SOL    HW2 7576   2.958   2.437   1.951
 2518SOL     OW 7577   1.940   2.418   3.248
 2518SOL    HW1 7578   2.032   2.417   3.207
 2518SOL    HW2 7579   1.934   2.492   3.315
 2519SOL     OW 7580   2.423   2.084   3.009
 2519SOL    HW1 7581   2.461   2.000   3.046
 2519SOL    HW2 7582   2.335   2.103   3.053
 2520SOL     OW 7583   2.728   2.316   2.504
 2520SOL    HW1 7584   2.696   2.388   2.442
 2520SOL    HW2 7585   2.752   2.235   2.451
 2521SOL     OW 7586   2.879   1.901   2.615
 2521SOL    HW1 7587   2.807   1.906   2.546
 2521SOL    HW2 7588   2.855   1.832   2.684
 2522SOL     OW 7589   3.291   3.035   2.729
 2522SOL    HW1 7590   3.236   2.951   2.722
 2522SOL    HW2 7591   3.317   3.064   2.637
 2523SOL     OW 7592   3.328   2.452   2.854
 2523SOL    HW1 7593   3.298   2.357   2.861
 2523SOL    HW2 7594   3.401   2.468   2.920
 2524SOL     OW 7595   3.719   2.695   2.239
 2524SOL    HW1 7596   3.761   2.631   2.303
 2524SOL    HW2 7597   3.681   2.644   2.161
 2525SOL     OW 7598   2.350   3.247   2.036
 2525SOL    HW1 7599   2.263   3.232   2.083
 2525SOL    HW2 7600   2.333   3.273   1.941
 2526SOL     OW 7601   3.526   3.142   2.519
 2526SOL    HW1 7602   3.625   3.150   2.533
 2526SOL    HW2 7603   3.481   3.226   2.550
 2527SOL     OW 7604   3.252   2.437   1.940
 2527SOL    HW1 7605   3.198   2.416   2.021
 2527SOL    HW2 7606   3.343   2.396   1.949
 2528SOL     OW 7607   2.389   2.118   2.190
 2528SOL    HW1 7608   2.416   2.059   2.115
 2528SOL    HW2 7609   2.389   2.213   2.159
 2529SOL     OW 7610   3.616   3.085   3.450
 2529SOL    HW1 7611   3.707   3.046   3.437
 2529SOL    HW2 7612   3.624   3.181   3.474
 2530SOL     OW 7613   2.926   3.209   3.202
 2530SOL    HW1 7614   2.846   3.186   3.257
 2530SOL    HW2 7615   3.009   3.183   3.251
 2531SOL     OW 7616   3.454   3.491   3.487
 2531SOL    HW1 7617   3.481   3.525   3.397
 2531SOL    HW2 7618   3.533   3.453   3.533
 2532SOL     OW 7619   2.973   3.057   2.962
 2532SOL    HW1 7620   2.933   3.101   3.043
 2532SOL    HW2 7621   2.932   3.094   2.879
 2533SOL     OW 7622   3.500   2.961   2.941
 2533SOL    HW1 7623   3.505   3.042   3.000
 2533SOL    HW2 7624   3.414   2.963   2.890
 2534SOL     OW 7625   2.777   1.951   3.264
 2534SOL    HW1 7626   2.802   1.931   3.169
 2534SOL    HW2 7627   2.849   2.007   3.306
 2535SOL     OW 7628   2.842   2.978   3.581
 2535SOL    HW1 7629   2.743   2.984   3.591
 2535SOL    HW2 7630   2.865   2.898   3.525
 2536SOL     OW 7631   2.567   2.912   2.230
 2536SOL    HW1 7632   2.553   2.919   2.329
 2536SOL    HW2 7633   2.651   2.861   2.212
 2537SOL     OW 7634   2.272   2.675   3.113
 2537SOL    HW1 7635   2.358   2.687   3.163
 2537SOL    HW2 7636   2.230   2.588   3.140
 2538SOL     OW 7637   3.136   2.248   3.124
 2538SOL    HW1 7638   3.157   2.322   3.188
 2538SOL    HW2 7639   3.047   2.265   3.081
 2539SOL     OW 7640   1.926   3.426   3.193
 2539SOL    HW1 7641   1.880   3.508   3.159
 2539SOL    HW2 7642   2.024   3.445   3.202
 2540SOL     OW 7643   2.229   2.962   2.363
 2540SOL    HW1 7644   2.222   3.045   2.307
 2540SOL    HW2 7645   2.233   2.882   2.303
 2541SOL     OW 7646   2.428   2.399   2.727
 2541SOL    HW1 7647   2.440   2.465   2.653
 2541SOL    HW2 7648   2.474   2.433   2.810
 2542SOL     OW 7649   3.114   3.210   2.250
 2542SOL    HW1 7650   3.164   3.287   2.290
 2542SOL    HW2 7651   3.019   3.212   2.282
 2543SOL     OW 7652   3.134   3.307   3.004
 2543SOL    HW1 7653   3.181   3.320   3.091
 2543SOL    HW2 7654   3.068   3.233   3.013
 2544SOL     OW 7655   3.444   2.501   2.334
 2544SOL    HW1 7656   3.413   2.562   2.407
 2544SOL    HW2 7657   3.494   2.553   2.265
 2545SOL     OW 7658   2.216   3.372   3.191
 2545SOL    HW1 7659   2.195   3.328   3.104
 2545SOL    HW2 7660   2.313   3.398   3.194
 2546SOL     OW 7661   2.264   2.613   3.460
 2546SOL    HW1 7662   2.332   2.668   3.413
 2546SOL    HW2 7663   2.304   2.525   3.487
 2547SOL     OW 7664   3.449   2.641   3.532
 2547SOL    HW1 7665   3.357   2.679   3.527
 2547SOL    HW2 7666   3.509   2.688   3.467
 2548SOL     OW 7667   2.875   1.967   3.632
 2548SOL    HW1 7668   2.881   2.052   3.580
 2548SOL    HW2 7669   2.907   1.891   3.575
 2549SOL     OW 7670   2.366   1.912   3.602
 2549SOL    HW1 7671   2.324   1.855   3.532
 2549SOL    HW2 7672   2.300   1.981   3.634
 2550SOL     OW 7673   2.435   2.732   2.891
 2550SOL    HW1 7674   2.479   2.821   2.882
 2550SOL    HW2 7675   2.372   2.732   2.968
 2551SOL     OW 7676   3.222   2.724   2.907
 2551SOL    HW1 7677   3.147   2.724   2.841
 2551SOL    HW2 7678   3.259   2.632   2.916
 2552SOL     OW 7679   3.071   2.387   2.137
 2552SOL    HW1 7680   3.084   2.303   2.191
 2552SOL    HW2 7681   3.042   2.461   2.197
 2553SOL     OW 7682   2.169   2.075   3.093
 2553SOL    HW1 7683   2.146   2.112   3.183
 2553SOL    HW2 7684   2.139   1.980   3.087
 2554SOL     OW 7685   1.899   3.172   3.144
 2554SOL    HW1 7686   1.952   3.123   3.212
 2554SOL    HW2 7687   1.921   3.270   3.149
 2555SOL     OW 7688   3.590   2.797   3.716
 2555SOL    HW1 7689   3.544   2.790   3.627
 2555SOL    HW2 7690   3.528   2.841   3.782
 2556SOL     OW 7691   2.169   1.925   2.480
 2556SOL    HW1 7692   2.158   2.019   2.513
 2556SOL    HW2 7693   2.164   1.862   2.557
 2557SOL     OW 7694   3.484   2.229   2.236
 2557SOL    HW1 7695   3.486   2.153   2.300
 2557SOL    HW2 7696   3.436   2.306   2.276
 2558SOL     OW 7697   2.842   3.435   3.562
 2558SOL    HW1 7698   2.822   3.479   3.474
 2558SOL    HW2 7699   2.881   3.344   3.546
 2559SOL     OW 7700   3.721   3.380   3.467
 2559SOL    HW1 7701   3.735   3.407   3.372
 2559SOL    HW2 7702   3.804   3.402   3.520
 2560SOL     OW 7703   2.212   2.760   3.666
 2560SOL    HW1 7704   2.288   2.804   3.714
 2560SOL    HW2 7705   2.247   2.713   3.584
 2561SOL     OW 7706   3.402   2.136   1.987
 2561SOL    HW1 7707   3.341   2.061   2.010
 2561SOL    HW2 7708   3.424   2.188   2.070
 2562SOL     OW 7709   3.165   2.700   1.904
 2562SOL    HW1 7710   3.199   2.607   1.919
 2562SOL    HW2 7711   3.183   2.727   1.809
 2563SOL     OW 7712   2.930   3.195   2.711
 2563SOL    HW1 7713   2.937   3.111   2.656
 2563SOL    HW2 7714   2.992   3.264   2.675
 2564SOL     OW 7715   2.181   2.672   2.811
 2564SOL    HW1 7716   2.274   2.708   2.816
 2564SOL    HW2 7717   2.175   2.587   2.863
 2565SOL     OW 7718   2.201   2.371   2.868
 2565SOL    HW1 7719   2.149   2.288   2.851
 2565SOL    HW2 7720   2.278   2.376   2.804
 2566SOL     OW 7721   3.000   2.242   3.540
 2566SOL    HW1 7722   2.955   2.305   3.604
 2566SOL    HW2 7723   3.093   2.273   3.523
 2567SOL     OW 7724   3.022   2.069   3.339
 2567SOL    HW1 7725   3.022   2.133   3.416
 2567SOL    HW2 7726   3.050   2.117   3.256
 2568SOL     OW 7727   1.870   3.188   2.062
 2568SOL    HW1 7728   1.777   3.209   2.031
 2568SOL    HW2 7729   1.880   3.089   2.075
 2569SOL     OW 7730   1.950   3.663   2.789
 2569SOL    HW1 7731   1.908   3.577   2.762
 2569SOL    HW2 7732   2.044   3.666   2.755
 2570SOL     OW 7733   2.366   3.430   2.772
 2570SOL    HW1 7734   2.432   3.504   2.781
 2570SOL    HW2 7735   2.410   3.351   2.730
 2571SOL     OW 7736   1.902   2.406   2.976
 2571SOL    HW1 7737   1.987   2.373   2.935
 2571SOL    HW2 7738   1.915   2.421   3.074
 2572SOL     OW 7739   2.051   2.382   3.584
 2572SOL    HW1 7740   2.110   2.342   3.514
 2572SOL    HW2 7741   1.993   2.453   3.543
 2573SOL     OW 7742   3.231   2.812   3.522
 2573SOL    HW1 7743   3.270   2.901   3.542
 2573SOL    HW2 7744   3.241   2.792   3.425
 2574SOL     OW 7745   3.519   2.466   3.068
 2574SOL    HW1 7746   3.481   2.397   3.130
 2574SOL    HW2 7747   3.601   2.430   3.024
 2575SOL     OW 7748   2.114   3.426   3.606
 2575SOL    HW1 7749   2.084   3.483   3.682
 2575SOL    HW2 7750   2.107   3.329   3.632
 2576SOL     OW 7751   2.533   2.326   3.131
 2576SOL    HW1 7752   2.499   2.237   3.101
 2576SOL    HW2 7753   2.559   2.380   3.051
 2577SOL     OW 7754   2.792   3.540   3.327
 2577SOL    HW1 7755   2.768   3.522   3.232
 2577SOL    HW2 7756   2.822   3.634   3.337
 2578SOL     OW 7757   2.021   2.999   3.328
 2578SOL    HW1 7758   2.043   2.938   3.404
 2578SOL    HW2 7759   2.031   2.950   3.242
 2579SOL     OW 7760   3.209   2.921   3.096
 2579SOL    HW1 7761   3.233   2.858   3.022
 2579SOL    HW2 7762   3.119   2.961   3.078
 2580SOL     OW 7763   3.164   2.717   2.171
 2580SOL    HW1 7764   3.078   2.686   2.213
 2580SOL    HW2 7765   3.160   2.703   2.072
 2581SOL     OW 7766   3.621   3.609   3.016
 2581SOL    HW1 7767   3.682   3.639   2.943
 2581SOL    HW2 7768   3.583   3.520   2.994
 2582SOL     OW 7769   3.114   3.593   2.990
 2582SOL    HW1 7770   3.198   3.598   2.936
 2582SOL    HW2 7771   3.091   3.497   3.008
 2583SOL     OW 7772   1.945   3.120   2.884
 2583SOL    HW1 7773   1.940   3.119   2.984
 2583SOL    HW2 7774   1.862   3.079   2.846
 2584SOL     OW 7775   2.550   3.524   3.578
 2584SOL    HW1 7776   2.494   3.605   3.587
 2584SOL    HW2 7777   2.602   3.528   3.492
 2585SOL     OW 7778   3.588   1.997   2.385
 2585SOL    HW1 7779   3.661   1.980   2.318
 2585SOL    HW2 7780   3.557   1.910   2.423
 2586SOL     OW 7781   3.250   3.435   2.339
 2586SOL    HW1 7782   3.317   3.447   2.265
 2586SOL    HW2 7783   3.210   3.524   2.362
 2587SOL     OW 7784   1.992   3.656   3.713
 2587SOL    HW1 7785   1.951   3.582   3.766
 2587SOL    HW2 7786   2.056   3.707   3.771
 2588SOL     OW 7787   3.142   2.789   2.534
 2588SOL    HW1 7788   3.202   2.708   2.536
 2588SOL    HW2 7789   3.182   2.858   2.474
 2589SOL     OW 7790   2.692   3.135   3.284
 2589SOL    HW1 7791   2.687   3.168   3.379
 2589SOL    HW2 7792   2.606   3.154   3.238
 2590SOL     OW 7793   2.534   3.478   2.016
 2590SOL    HW1 7794   2.543   3.488   1.917
 2590SOL    HW2 7795   2.494   3.389   2.037
 2591SOL     OW 7796   3.512   3.582   3.256
 2591SOL    HW1 7797   3.565   3.592   3.172
 2591SOL    HW2 7798   3.485   3.672   3.290
 2592SOL     OW 7799   3.703   2.037   2.825
 2592SOL    HW1 7800   3.742   1.952   2.789
 2592SOL    HW2 7801   3.605   2.039   2.806
 2593SOL     OW 7802   2.125   2.188   2.582
 2593SOL    HW1 7803   2.046   2.239   2.548
 2593SOL    HW2 7804   2.116   2.173   2.680
 2594SOL     OW 7805   3.056   3.474   1.893
 2594SOL    HW1 7806   3.062   3.381   1.930
 2594SOL    HW2 7807   2.997   3.474   1.813
 2595SOL     OW 7808   2.684   2.864   3.234
 2595SOL    HW1 7809   2.724   2.863   3.142
 2595SOL    HW2 7810   2.694   2.956   3.274
 2596SOL     OW 7811   2.778   2.772   2.153
 2596SOL    HW1 7812   2.841   2.810   2.085
 2596SOL    HW2 7813   2.818   2.689   2.192
 2597SOL     OW 7814   3.366   3.469   1.906
 2597SOL    HW1 7815   3.274   3.506   1.913
 2597SOL    HW2 7816   3.404   3.489   1.816
 2598SOL     OW 7817   2.234   3.150   3.352
 2598SOL    HW1 7818   2.221   3.243   3.318
 2598SOL    HW2 7819   2.150   3.098   3.339
 2599SOL     OW 7820   3.476   3.154   3.151
 2599SOL    HW1 7821   3.536   3.157   3.231
 2599SOL    HW2 7822   3.401   3.218   3.164
 2600SOL     OW 7823   2.901   2.960   2.558
 2600SOL    HW1 7824   2.831   2.913   2.612
 2600SOL    HW2 7825   2.960   2.892   2.515
 2601SOL     OW 7826   2.876   2.098   2.833
 2601SOL    HW1 7827   2.868   2.062   2.740
 2601SOL    HW2 7828   2.874   2.022   2.898
 2602SOL     OW 7829   2.452   3.349   2.353
 2602SOL    HW1 7830   2.494   3.291   2.283
 2602SOL    HW2 7831   2.408   3.428   2.309
 2603SOL     OW 7832   3.571   2.247   3.243
 2603SOL    HW1 7833   3.644   2.316   3.247
 2603SOL    HW2 7834   3.599   2.172   3.184
 2604SOL     OW 7835   2.117   3.210   2.152
 2604SOL    HW1 7836   2.021   3.211   2.125
 2604SOL    HW2 7837   2.129   3.263   2.236
 2605SOL     OW 7838   1.967   2.875   3.588
 2605SOL    HW1 7839   1.890   2.842   3.642
 2605SOL    HW2 7840   2.052   2.845   3.630
 2606SOL     OW 7841   2.534   2.065   3.351
 2606SOL    HW1 7842   2.624   2.049   3.311
 2606SOL    HW2 7843   2.542   2.070   3.450
 2607SOL     OW 7844   1.937   2.207   1.895
 2607SOL    HW1 7845   1.845   2.179   1.866
 2607SOL    HW2 7846   1.968   2.284   1.839
 2608SOL     OW 7847   3.302   2.718   3.260
 2608SOL    HW1 7848   3.245   2.770   3.197
 2608SOL    HW2 7849   3.398   2.730   3.236
 2609SOL     OW 7850   1.934   2.028   2.180
 2609SOL    HW1 7851   1.917   2.111   2.126
 2609SOL    HW2 7852   2.024   1.991   2.158
 2610SOL     OW 7853   3.045   3.197   1.981
 2610SOL    HW1 7854   2.946   3.186   1.983
 2610SOL    HW2 7855   3.079   3.212   2.074
 2611SOL     OW 7856   2.475   2.704   3.293
 2611SOL    HW1 7857   2.531   2.785   3.276
 2611SOL    HW2 7858   2.534   2.624   3.296
 2612SOL     OW 7859   3.355   3.629   2.821
 2612SOL    HW1 7860   3.388   3.693   2.752
 2612SOL    HW2 7861   3.421   3.623   2.896
 2613SOL     OW 7862   2.578   2.427   3.570
 2613SOL    HW1 7863   2.597   2.492   3.644
 2613SOL    HW2 7864   2.638   2.347   3.579
 2614SOL     OW 7865   3.312   3.082   3.495
 2614SOL    HW1 7866   3.303   3.072   3.594
 2614SOL    HW2 7867   3.408   3.075   3.469
 2615SOL     OW 7868   2.252   3.603   3.422
 2615SOL    HW1 7869   2.161   3.644   3.420
 2615SOL    HW2 7870   2.245   3.509   3.454
 2616SOL     OW 7871   3.536   2.745   3.116
 2616SOL    HW1 7872   3.509   2.656   3.079
 2616SOL    HW2 7873   3.537   2.813   3.043
 2617SOL     OW 7874   3.087   2.187   2.311
 2617SOL    HW1 7875   3.152   2.113   2.300
 2617SOL    HW2 7876   3.107   2.237   2.395
 2618SOL     OW 7877   3.639   2.204   3.504
 2618SOL    HW1 7878   3.622   2.235   3.410
 2618SOL    HW2 7879   3.555   2.167   3.542
 2619SOL     OW 7880   3.592   2.796   3.379
 2619SOL    HW1 7881   3.630   2.887   3.394
 2619SOL    HW2 7882   3.584   2.779   3.280
 2620SOL     OW 7883   2.721   3.236   1.878
 2620SOL    HW1 7884   2.675   3.251   1.966
 2620SOL    HW2 7885   2.765   3.321   1.848
 2621SOL     OW 7886   2.523   3.652   2.815
 2621SOL    HW1 7887   2.477   3.740   2.802
 2621SOL    HW2 7888   2.622   3.664   2.808
 2622SOL     OW 7889   2.945   2.846   1.949
 2622SOL    HW1 7890   2.922   2.899   1.867
 2622SOL    HW2 7891   3.026   2.790   1.930
 2623SOL     OW 7892   3.723   3.431   2.713
 2623SOL    HW1 7893   3.652   3.419   2.643
 2623SOL    HW2 7894   3.724   3.352   2.773
 2624SOL     OW 7895   2.083   3.176   3.706
 2624SOL    HW1 7896   2.018   3.103   3.685
 2624SOL    HW2 7897   2.087   3.190   3.804
 2625SOL     OW 7898   1.941   3.102   2.515
 2625SOL    HW1 7899   1.940   3.055   2.603
 2625SOL    HW2 7900   2.023   3.074   2.464
 2626SOL     OW 7901   2.534   3.253   3.486
 2626SOL    HW1 7902   2.456   3.203   3.524
 2626SOL    HW2 7903   2.531   3.348   3.517
 2627SOL     OW 7904   3.686   2.054   3.089
 2627SOL    HW1 7905   3.682   1.964   3.133
 2627SOL    HW2 7906   3.689   2.043   2.990
 2628SOL     OW 7907   2.290   2.286   2.382
 2628SOL    HW1 7908   2.320   2.214   2.320
 2628SOL    HW2 7909   2.251   2.246   2.465
 2629SOL     OW 7910   3.567   3.349   2.966
 2629SOL    HW1 7911   3.474   3.324   2.939
 2629SOL    HW2 7912   3.593   3.299   3.048
 2630SOL     OW 7913   2.179   2.409   3.142
 2630SOL    HW1 7914   2.217   2.350   3.214
 2630SOL    HW2 7915   2.219   2.383   3.054
 2631SOL     OW 7916   2.674   3.448   2.549
 2631SOL    HW1 7917   2.706   3.458   2.455
 2631SOL    HW2 7918   2.595   3.386   2.551
 2632SOL     OW 7919   3.286   2.076   2.974
 2632SOL    HW1 7920   3.338   2.011   3.029
 2632SOL    HW2 7921   3.237   2.139   3.035
 2633SOL     OW 7922   2.863   1.896   3.016
 2633SOL    HW1 7923   2.800   1.824   2.985
 2633SOL    HW2 7924   2.956   1.860   3.016
 2634SOL     OW 7925   2.632   3.192   2.163
 2634SOL    HW1 7926   2.586   3.105   2.180
 2634SOL    HW2 7927   2.723   3.189   2.204
 2635SOL     OW 7928   2.480   3.429   3.146
 2635SOL    HW1 7929   2.475   3.511   3.203
 2635SOL    HW2 7930   2.569   3.426   3.101
 2636SOL     OW 7931   3.214   1.914   2.030
 2636SOL    HW1 7932   3.249   1.873   1.946
 2636SOL    HW2 7933   3.124   1.876   2.050
 2637SOL     OW 7934   3.162   2.315   2.553
 2637SOL    HW1 7935   3.103   2.395   2.557
 2637SOL    HW2 7936   3.177   2.280   2.646
 2638SOL     OW 7937   3.455   2.083   2.744
 2638SOL    HW1 7938   3.371   2.082   2.798
 2638SOL    HW2 7939   3.457   2.166   2.688
 2639SOL     OW 7940   1.901   2.939   2.162
 2639SOL    HW1 7941   2.000   2.928   2.153
 2639SOL    HW2 7942   1.861   2.853   2.194
 2640SOL     OW 7943   2.737   3.508   2.199
 2640SOL    HW1 7944   2.660   3.473   2.145
 2640SOL    HW2 7945   2.705   3.579   2.261
 2641SOL     OW 7946   2.092   2.490   3.837
 2641SOL    HW1 7947   1.999   2.488   3.874
 2641SOL    HW2 7948   2.093   2.451   3.745
 2642SOL     OW 7949   2.087   2.137   4.720
 2642SOL    HW1 7950   2.122   2.120   4.812
 2642SOL    HW2 7951   1.999   2.092   4.708
 2643SOL     OW 7952   1.881   2.230   4.371
 2643SOL    HW1 7953   1.799   2.273   4.410
 2643SOL    HW2 7954   1.853   2.157   4.308
 2644SOL     OW 7955   2.431   3.137   4.889
 2644SOL    HW1 7956   2.338   3.130   4.852
 2644SOL    HW2 7957   2.442   3.226   4.933
 2645SOL     OW 7958   3.417   3.373   4.427
 2645SOL    HW1 7959   3.360   3.357   4.508
 2645SOL    HW2 7960   3.358   3.383   4.347
 2646SOL     OW 7961   2.997   2.565   4.441
 2646SOL    HW1 7962   3.054   2.643   4.416
 2646SOL    HW2 7963   2.937   2.591   4.517
 2647SOL     OW 7964   3.617   2.469   3.955
 2647SOL    HW1 7965   3.605   2.456   3.856
 2647SOL    HW2 7966   3.587   2.388   4.004
 2648SOL     OW 7967   2.630   3.006   4.747
 2648SOL    HW1 7968   2.552   3.023   4.807
 2648SOL    HW2 7969   2.664   3.093   4.711
 2649SOL     OW 7970   2.547   2.874   4.389
 2649SOL    HW1 7971   2.616   2.858   4.459
 2649SOL    HW2 7972   2.474   2.931   4.427
 2650SOL     OW 7973   2.197   3.297   4.785
 2650SOL    HW1 7974   2.119   3.266   4.732
 2650SOL    HW2 7975   2.255   3.355   4.728
 2651SOL     OW 7976   2.300   2.254   5.223
 2651SOL    HW1 7977   2.382   2.198   5.232
 2651SOL    HW2 7978   2.219   2.196   5.227
 2652SOL     OW 7979   3.465   2.309   4.461
 2652SOL    HW1 7980   3.391   2.355   4.411
 2652SOL    HW2 7981   3.516   2.377   4.514
 2653SOL     OW 7982   2.093   3.575   4.207
 2653SOL    HW1 7983   2.127   3.652   4.261
 2653SOL    HW2 7984   2.137   3.575   4.117
 2654SOL     OW 7985   2.092   3.296   4.262
 2654SOL    HW1 7986   2.066   3.392   4.262
 2654SOL    HW2 7987   2.021   3.242   4.307
 2655SOL     OW 7988   2.102   2.953   4.610
 2655SOL    HW1 7989   2.116   2.869   4.662
 2655SOL    HW2 7990   2.047   3.017   4.665
 2656SOL     OW 7991   2.482   3.648   5.163
 2656SOL    HW1 7992   2.390   3.631   5.198
 2656SOL    HW2 7993   2.510   3.740   5.189
 2657SOL     OW 7994   2.468   2.826   3.847
 2657SOL    HW1 7995   2.475   2.910   3.793
 2657SOL    HW2 7996   2.514   2.839   3.935
 2658SOL     OW 7997   1.984   2.505   4.287
 2658SOL    HW1 7998   1.939   2.417   4.304
 2658SOL    HW2 7999   1.983   2.559   4.371
 2659SOL     OW 8000   3.704   3.629   4.083
 2659SOL    HW1 8001   3.758   3.600   4.163
 2659SOL    HW2 8002   3.734   3.719   4.054
 2660SOL     OW 8003   1.889   3.458   3.841
 2660SOL    HW1 8004   1.870   3.362   3.862
 2660SOL    HW2 8005   1.856   3.516   3.916
 2661SOL     OW 8006   3.551   2.784   4.336
 2661SOL    HW1 8007   3.646   2.755   4.344
 2661SOL    HW2 8008   3.543   2.849   4.261
 2662SOL     OW 8009   3.503   2.970   4.156
 2662SOL    HW1 8010   3.589   2.972   4.104
 2662SOL    HW2 8011   3.517   3.017   4.244
 2663SOL     OW 8012   2.475   3.227   4.450
 2663SOL    HW1 8013   2.426   3.140   4.459
 2663SOL    HW2 8014   2.452   3.270   4.363
 2664SOL     OW 8015   2.671   1.866   4.226
 2664SOL    HW1 8016   2.711   1.957   4.217
 2664SOL    HW2 8017   2.571   1.874   4.232
 2665SOL     OW 8018   2.059   2.838   4.988
 2665SOL    HW1 8019   2.148   2.793   4.974
 2665SOL    HW2 8020   1.986   2.773   4.969
 2666SOL     OW 8021   3.387   2.861   3.914
 2666SOL    HW1 8022   3.324   2.785   3.927
 2666SOL    HW2 8023   3.435   2.879   4.000
 2667SOL     OW 8024   3.328   3.279   4.677
 2667SOL    HW1 8025   3.269   3.285   4.757
 2667SOL    HW2 8026   3.313   3.191   4.631
 2668SOL     OW 8027   3.529   3.576   4.296
 2668SOL    HW1 8028   3.488   3.553   4.208
 2668SOL    HW2 8029   3.511   3.502   4.361
 2669SOL     OW 8030   2.460   2.591   3.994
 2669SOL    HW1 8031   2.484   2.660   3.926
 2669SOL    HW2 8032   2.382   2.624   4.048
 2670SOL     OW 8033   3.143   2.207   4.668
 2670SOL    HW1 8034   3.057   2.157   4.655
 2670SOL    HW2 8035   3.205   2.153   4.724
 2671SOL     OW 8036   3.438   3.524   4.031
 2671SOL    HW1 8037   3.527   3.570   4.034
 2671SOL    HW2 8038   3.417   3.500   3.936
 2672SOL     OW 8039   2.669   2.467   5.189
 2672SOL    HW1 8040   2.622   2.464   5.278
 2672SOL    HW2 8041   2.618   2.412   5.123
 2673SOL     OW 8042   2.853   2.272   4.966
 2673SOL    HW1 8043   2.776   2.306   5.020
 2673SOL    HW2 8044   2.819   2.221   4.887
 2674SOL     OW 8045   2.903   2.563   4.153
 2674SOL    HW1 8046   2.929   2.559   4.249
 2674SOL    HW2 8047   2.818   2.512   4.139
 2675SOL     OW 8048   1.938   2.673   4.513
 2675SOL    HW1 8049   2.037   2.661   4.522
 2675SOL    HW2 8050   1.914   2.768   4.534
 2676SOL     OW 8051   1.992   3.683   5.295
 2676SOL    HW1 8052   1.982   3.668   5.394
 2676SOL    HW2 8053   1.906   3.719   5.259
 2677SOL     OW 8054   2.727   2.210   3.919
 2677SOL    HW1 8055   2.786   2.273   3.870
 2677SOL    HW2 8056   2.746   2.116   3.890
 2678SOL     OW 8057   3.224   3.006   4.269
 2678SOL    HW1 8058   3.307   2.977   4.221
 2678SOL    HW2 8059   3.175   3.073   4.213
 2679SOL     OW 8060   2.412   2.058   4.609
 2679SOL    HW1 8061   2.407   2.053   4.709
 2679SOL    HW2 8062   2.414   2.154   4.580
 2680SOL     OW 8063   2.870   3.318   4.201
 2680SOL    HW1 8064   2.824   3.390   4.149
 2680SOL    HW2 8065   2.866   3.338   4.299
 2681SOL     OW 8066   2.213   3.663   4.577
 2681SOL    HW1 8067   2.263   3.577   4.583
 2681SOL    HW2 8068   2.278   3.740   4.574
 2682SOL     OW 8069   3.657   2.928   4.597
 2682SOL    HW1 8070   3.595   2.913   4.521
 2682SOL    HW2 8071   3.605   2.939   4.682
 2683SOL     OW 8072   2.183   2.805   3.966
 2683SOL    HW1 8073   2.265   2.844   3.924
 2683SOL    HW2 8074   2.156   2.723   3.917
 2684SOL     OW 8075   3.320   2.597   4.452
 2684SOL    HW1 8076   3.315   2.532   4.527
 2684SOL    HW2 8077   3.400   2.656   4.465
 2685SOL     OW 8078   2.973   3.638   3.961
 2685SOL    HW1 8079   2.913   3.576   4.011
 2685SOL    HW2 8080   3.004   3.594   3.876
 2686SOL     OW 8081   3.494   3.239   3.805
 2686SOL    HW1 8082   3.462   3.333   3.795
 2686SOL    HW2 8083   3.418   3.176   3.793
 2687SOL     OW 8084   2.326   3.605   4.047
 2687SOL    HW1 8085   2.359   3.644   4.133
 2687SOL    HW2 8086   2.402   3.598   3.982
 2688SOL     OW 8087   3.262   1.969   4.150
 2688SOL    HW1 8088   3.238   1.932   4.060
 2688SOL    HW2 8089   3.361   1.985   4.154
 2689SOL     OW 8090   2.111   3.647   4.965
 2689SOL    HW1 8091   2.168   3.582   5.015
 2689SOL    HW2 8092   2.095   3.614   4.872
 2690SOL     OW 8093   2.802   3.560   4.628
 2690SOL    HW1 8094   2.882   3.503   4.649
 2690SOL    HW2 8095   2.753   3.520   4.551
 2691SOL     OW 8096   2.244   2.562   4.204
 2691SOL    HW1 8097   2.289   2.472   4.201
 2691SOL    HW2 8098   2.150   2.551   4.237
 2692SOL     OW 8099   2.476   1.984   3.841
 2692SOL    HW1 8100   2.574   1.962   3.848
 2692SOL    HW2 8101   2.445   1.967   3.748
 2693SOL     OW 8102   2.750   3.376   4.919
 2693SOL    HW1 8103   2.727   3.351   4.825
 2693SOL    HW2 8104   2.811   3.307   4.958
 2694SOL     OW 8105   2.665   3.264   4.648
 2694SOL    HW1 8106   2.755   3.278   4.606
 2694SOL    HW2 8107   2.594   3.266   4.577
 2695SOL     OW 8108   2.784   2.365   4.623
 2695SOL    HW1 8109   2.759   2.356   4.527
 2695SOL    HW2 8110   2.832   2.283   4.654
 2696SOL     OW 8111   2.401   1.926   4.236
 2696SOL    HW1 8112   2.320   1.927   4.294
 2696SOL    HW2 8113   2.404   2.009   4.181
 2697SOL     OW 8114   3.296   3.050   3.765
 2697SOL    HW1 8115   3.328   2.974   3.822
 2697SOL    HW2 8116   3.204   3.077   3.795
 2698SOL     OW 8117   2.159   1.897   3.895
 2698SOL    HW1 8118   2.208   1.981   3.874
 2698SOL    HW2 8119   2.221   1.832   3.940
 2699SOL     OW 8120   2.797   2.098   4.204
 2699SOL    HW1 8121   2.749   2.139   4.126
 2699SOL    HW2 8122   2.896   2.096   4.185
 2700SOL     OW 8123   3.089   3.432   4.517
 2700SOL    HW1 8124   3.110   3.506   4.452
 2700SOL    HW2 8125   3.157   3.432   4.590
 2701SOL     OW 8126   2.321   3.014   4.465
 2701SOL    HW1 8127   2.250   2.987   4.530
 2701SOL    HW2 8128   2.295   2.986   4.372
 2702SOL     OW 8129   3.133   3.659   4.315
 2702SOL    HW1 8130   3.177   3.723   4.251
 2702SOL    HW2 8131   3.083   3.711   4.385
 2703SOL     OW 8132   2.894   2.411   3.740
 2703SOL    HW1 8133   2.853   2.493   3.701
 2703SOL    HW2 8134   2.958   2.437   3.813
 2704SOL     OW 8135   2.423   2.084   4.871
 2704SOL    HW1 8136   2.461   2.000   4.908
 2704SOL    HW2 8137   2.335   2.103   4.915
 2705SOL     OW 8138   2.728   2.316   4.366
 2705SOL    HW1 8139   2.696   2.388   4.304
 2705SOL    HW2 8140   2.752   2.235   4.313
 2706SOL     OW 8141   2.879   1.901   4.477
 2706SOL    HW1 8142   2.807   1.906   4.408
 2706SOL    HW2 8143   2.855   1.832   4.546
 2707SOL     OW 8144   3.291   3.035   4.591
 2707SOL    HW1 8145   3.236   2.951   4.584
 2707SOL    HW2 8146   3.317   3.064   4.499
 2708SOL     OW 8147   3.328   2.452   4.716
 2708SOL    HW1 8148   3.298   2.357   4.723
 2708SOL    HW2 8149   3.401   2.468   4.782
 2709SOL     OW 8150   3.719   2.695   4.101
 2709SOL    HW1 8151   3.761   2.631   4.165
 2709SOL    HW2 8152   3.681   2.644   4.023
 2710SOL     OW 8153   2.350   3.247   3.898
 2710SOL    HW1 8154   2.263   3.232   3.945
 2710SOL    HW2 8155   2.333   3.273   3.803
 2711SOL     OW 8156   3.526   3.142   4.381
 2711SOL    HW1 8157   3.625   3.150   4.395
 2711SOL    HW2 8158   3.481   3.226   4.412
 2712SOL     OW 8159   3.252   2.437   3.802
 2712SOL    HW1 8160   3.198   2.416   3.883
 2712SOL    HW2 8161   3.343   2.396   3.811
 2713SOL     OW 8162   2.389   2.118   4.052
 2713SOL    HW1 8163   2.416   2.059   3.977
 2713SOL    HW2 8164   2.389   2.213   4.021
 2714SOL     OW 8165   3.616   3.085   5.312
 2714SOL    HW1 8166   3.707   3.046   5.299
 2714SOL    HW2 8167   3.624   3.181   5.336
 2715SOL     OW 8168   2.926   3.209   5.064
 2715SOL    HW1 8169   2.846   3.186   5.119
 2715SOL    HW2 8170   3.009   3.183   5.113
 2716SOL     OW 8171   2.973   3.057   4.824
 2716SOL    HW1 8172   2.933   3.101   4.905
 2716SOL    HW2 8173   2.932   3.094   4.741
 2717SOL     OW 8174   3.500   2.961   4.803
 2717SOL    HW1 8175   3.505   3.042   4.862
 2717SOL    HW2 8176   3.414   2.963   4.752
 2718SOL     OW 8177   2.567   2.912   4.092
 2718SOL    HW1 8178   2.553   2.919   4.191
 2718SOL    HW2 8179   2.651   2.861   4.074
 2719SOL     OW 8180   2.272   2.675   4.975
 2719SOL    HW1 8181   2.358   2.687   5.025
 2719SOL    HW2 8182   2.230   2.588   5.002
 2720SOL     OW 8183   3.136   2.248   4.986
 2720SOL    HW1 8184   3.157   2.322   5.050
 2720SOL    HW2 8185   3.047   2.265   4.943
 2721SOL     OW 8186   1.926   3.426   5.055
 2721SOL    HW1 8187   1.880   3.508   5.021
 2721SOL    HW2 8188   2.024   3.445   5.064
 2722SOL     OW 8189   2.229   2.962   4.225
 2722SOL    HW1 8190   2.222   3.045   4.169
 2722SOL    HW2 8191   2.233   2.882   4.165
 2723SOL     OW 8192   2.428   2.399   4.589
 2723SOL    HW1 8193   2.440   2.465   4.515
 2723SOL    HW2 8194   2.474   2.433   4.672
 2724SOL     OW 8195   3.114   3.210   4.112
 2724SOL    HW1 8196   3.164   3.287   4.152
 2724SOL    HW2 8197   3.019   3.212   4.144
 2725SOL     OW 8198   3.134   3.307   4.866
 2725SOL    HW1 8199   3.181   3.320   4.953
 2725SOL    HW2 8200   3.068   3.233   4.875
 2726SOL     OW 8201   3.444   2.501   4.196
 2726SOL    HW1 8202   3.413   2.562   4.269
 2726SOL    HW2 8203   3.494   2.553   4.127
 2727SOL     OW 8204   2.216   3.372   5.053
 2727SOL    HW1 8205   2.195   3.328   4.966
 2727SOL    HW2 8206   2.313   3.398   5.056
 2728SOL     OW 8207   2.366   1.912   5.464
 2728SOL    HW1 8208   2.324   1.855   5.394
 2728SOL    HW2 8209   2.300   1.981   5.496
 2729SOL     OW 8210   2.435   2.732   4.753
 2729SOL    HW1 8211   2.479   2.821   4.744
 2729SOL    HW2 8212   2.372   2.732   4.830
 2730SOL     OW 8213   3.222   2.724   4.769
 2730SOL    HW1 8214   3.147   2.724   4.703
 2730SOL    HW2 8215   3.259   2.632   4.778
 2731SOL     OW 8216   3.071   2.387   3.999
 2731SOL    HW1 8217   3.084   2.303   4.053
 2731SOL    HW2 8218   3.042   2.461   4.059
 2732SOL     OW 8219   2.169   2.075   4.955
 2732SOL    HW1 8220   2.146   2.112   5.045
 2732SOL    HW2 8221   2.139   1.980   4.949
 2733SOL     OW 8222   1.899   3.172   5.006
 2733SOL    HW1 8223   1.952   3.123   5.074
 2733SOL    HW2 8224   1.921   3.270   5.011
 2734SOL     OW 8225   2.594   2.496   4.788
 2734SOL    HW1 8226   2.653   2.470   4.712
 2734SOL    HW2 8227   2.566   2.592   4.777
 2735SOL     OW 8228   2.169   1.925   4.342
 2735SOL    HW1 8229   2.158   2.019   4.375
 2735SOL    HW2 8230   2.164   1.862   4.419
 2736SOL     OW 8231   3.484   2.229   4.098
 2736SOL    HW1 8232   3.486   2.153   4.162
 2736SOL    HW2 8233   3.436   2.306   4.138
 2737SOL     OW 8234   2.885   2.628   4.690
 2737SOL    HW1 8235   2.900   2.649   4.786
 2737SOL    HW2 8236   2.855   2.533   4.681
 2738SOL     OW 8237   3.402   2.136   3.849
 2738SOL    HW1 8238   3.341   2.061   3.872
 2738SOL    HW2 8239   3.424   2.188   3.932
 2739SOL     OW 8240   3.165   2.700   3.766
 2739SOL    HW1 8241   3.199   2.607   3.781
 2739SOL    HW2 8242   3.183   2.727   3.671
 2740SOL     OW 8243   2.930   3.195   4.573
 2740SOL    HW1 8244   2.937   3.111   4.518
 2740SOL    HW2 8245   2.992   3.264   4.537
 2741SOL     OW 8246   2.181   2.672   4.673
 2741SOL    HW1 8247   2.274   2.708   4.678
 2741SOL    HW2 8248   2.175   2.587   4.725
 2742SOL     OW 8249   2.201   2.371   4.730
 2742SOL    HW1 8250   2.149   2.288   4.713
 2742SOL    HW2 8251   2.278   2.376   4.666
 2743SOL     OW 8252   3.022   2.069   5.201
 2743SOL    HW1 8253   3.022   2.133   5.278
 2743SOL    HW2 8254   3.050   2.117   5.118
 2744SOL     OW 8255   1.870   3.188   3.924
 2744SOL    HW1 8256   1.777   3.209   3.893
 2744SOL    HW2 8257   1.880   3.089   3.937
 2745SOL     OW 8258   1.950   3.663   4.651
 2745SOL    HW1 8259   1.908   3.577   4.624
 2745SOL    HW2 8260   2.044   3.666   4.617
 2746SOL     OW 8261   2.366   3.430   4.634
 2746SOL    HW1 8262   2.432   3.504   4.643
 2746SOL    HW2 8263   2.410   3.351   4.592
 2747SOL     OW 8264   2.864   2.658   4.962
 2747SOL    HW1 8265   2.905   2.626   5.048
 2747SOL    HW2 8266   2.768   2.631   4.959
 2748SOL     OW 8267   1.902   2.406   4.838
 2748SOL    HW1 8268   1.987   2.373   4.797
 2748SOL    HW2 8269   1.915   2.421   4.936
 2749SOL     OW 8270   2.677   2.434   4.049
 2749SOL    HW1 8271   2.684   2.345   4.003
 2749SOL    HW2 8272   2.583   2.468   4.041
 2750SOL     OW 8273   3.519   2.466   4.930
 2750SOL    HW1 8274   3.481   2.397   4.992
 2750SOL    HW2 8275   3.601   2.430   4.886
 2751SOL     OW 8276   2.533   2.326   4.993
 2751SOL    HW1 8277   2.499   2.237   4.963
 2751SOL    HW2 8278   2.559   2.380   4.913
 2752SOL     OW 8279   2.792   3.540   5.189
 2752SOL    HW1 8280   2.768   3.522   5.094
 2752SOL    HW2 8281   2.822   3.634   5.199
 2753SOL     OW 8282   2.335   2.362   3.915
 2753SOL    HW1 8283   2.396   2.442   3.919
 2753SOL    HW2 8284   2.240   2.393   3.922
 2754SOL     OW 8285   2.021   2.999   5.190
 2754SOL    HW1 8286   2.043   2.938   5.266
 2754SOL    HW2 8287   2.031   2.950   5.104
 2755SOL     OW 8288   3.209   2.921   4.958
 2755SOL    HW1 8289   3.233   2.858   4.884
 2755SOL    HW2 8290   3.119   2.961   4.940
 2756SOL     OW 8291   3.164   2.717   4.033
 2756SOL    HW1 8292   3.078   2.686   4.075
 2756SOL    HW2 8293   3.160   2.703   3.934
 2757SOL     OW 8294   3.621   3.609   4.878
 2757SOL    HW1 8295   3.682   3.639   4.805
 2757SOL    HW2 8296   3.583   3.520   4.856
 2758SOL     OW 8297   3.114   3.593   4.852
 2758SOL    HW1 8298   3.198   3.598   4.798
 2758SOL    HW2 8299   3.091   3.497   4.870
 2759SOL     OW 8300   1.945   3.120   4.746
 2759SOL    HW1 8301   1.940   3.119   4.846
 2759SOL    HW2 8302   1.862   3.079   4.708
 2760SOL     OW 8303   3.588   1.997   4.247
 2760SOL    HW1 8304   3.661   1.980   4.180
 2760SOL    HW2 8305   3.557   1.910   4.285
 2761SOL     OW 8306   3.250   3.435   4.201
 2761SOL    HW1 8307   3.317   3.447   4.127
 2761SOL    HW2 8308   3.210   3.524   4.224
 2762SOL     OW 8309   3.142   2.789   4.396
 2762SOL    HW1 8310   3.202   2.708   4.398
 2762SOL    HW2 8311   3.182   2.858   4.336
 2763SOL     OW 8312   2.534   3.478   3.878
 2763SOL    HW1 8313   2.543   3.488   3.779
 2763SOL    HW2 8314   2.494   3.389   3.899
 2764SOL     OW 8315   3.703   2.037   4.687
 2764SOL    HW1 8316   3.742   1.952   4.651
 2764SOL    HW2 8317   3.605   2.039   4.668
 2765SOL     OW 8318   2.125   2.188   4.444
 2765SOL    HW1 8319   2.046   2.239   4.410
 2765SOL    HW2 8320   2.116   2.173   4.542
 2766SOL     OW 8321   3.056   3.474   3.755
 2766SOL    HW1 8322   3.062   3.381   3.792
 2766SOL    HW2 8323   2.997   3.474   3.675
 2767SOL     OW 8324   2.684   2.864   5.096
 2767SOL    HW1 8325   2.724   2.863   5.004
 2767SOL    HW2 8326   2.694   2.956   5.136
 2768SOL     OW 8327   2.778   2.772   4.015
 2768SOL    HW1 8328   2.841   2.810   3.947
 2768SOL    HW2 8329   2.818   2.689   4.054
 2769SOL     OW 8330   3.366   3.469   3.768
 2769SOL    HW1 8331   3.274   3.506   3.775
 2769SOL    HW2 8332   3.404   3.489   3.678
 2770SOL     OW 8333   2.234   3.150   5.214
 2770SOL    HW1 8334   2.221   3.243   5.180
 2770SOL    HW2 8335   2.150   3.098   5.201
 2771SOL     OW 8336   3.476   3.154   5.013
 2771SOL    HW1 8337   3.536   3.157   5.093
 2771SOL    HW2 8338   3.401   3.218   5.026
 2772SOL     OW 8339   2.901   2.960   4.420
 2772SOL    HW1 8340   2.831   2.913   4.474
 2772SOL    HW2 8341   2.960   2.892   4.377
 2773SOL     OW 8342   2.876   2.098   4.695
 2773SOL    HW1 8343   2.868   2.062   4.602
 2773SOL    HW2 8344   2.874   2.022   4.760
 2774SOL     OW 8345   2.452   3.349   4.215
 2774SOL    HW1 8346   2.494   3.291   4.145
 2774SOL    HW2 8347   2.408   3.428   4.171
 2775SOL     OW 8348   3.571   2.247   5.105
 2775SOL    HW1 8349   3.644   2.316   5.109
 2775SOL    HW2 8350   3.599   2.172   5.046
 2776SOL     OW 8351   2.117   3.210   4.014
 2776SOL    HW1 8352   2.021   3.211   3.987
 2776SOL    HW2 8353   2.129   3.263   4.098
 2777SOL     OW 8354   2.534   2.065   5.213
 2777SOL    HW1 8355   2.624   2.049   5.173
 2777SOL    HW2 8356   2.542   2.070   5.312
 2778SOL     OW 8357   1.937   2.207   3.757
 2778SOL    HW1 8358   1.845   2.179   3.728
 2778SOL    HW2 8359   1.968   2.284   3.701
 2779SOL     OW 8360   1.934   2.028   4.042
 2779SOL    HW1 8361   1.917   2.111   3.988
 2779SOL    HW2 8362   2.024   1.991   4.020
 2780SOL     OW 8363   3.045   3.197   3.843
 2780SOL    HW1 8364   2.946   3.186   3.845
 2780SOL    HW2 8365   3.079   3.212   3.936
 2781SOL     OW 8366   2.475   2.704   5.155
 2781SOL    HW1 8367   2.531   2.785   5.138
 2781SOL    HW2 8368   2.534   2.624   5.158
 2782SOL     OW 8369   3.355   3.629   4.683
 2782SOL    HW1 8370   3.388   3.693   4.614
 2782SOL    HW2 8371   3.421   3.623   4.758
 2783SOL     OW 8372   2.252   3.603   5.284
 2783SOL    HW1 8373   2.161   3.644   5.282
 2783SOL    HW2 8374   2.245   3.509   5.316
 2784SOL     OW 8375   3.536   2.745   4.978
 2784SOL    HW1 8376   3.509   2.656   4.941
 2784SOL    HW2 8377   3.537   2.813   4.905
 2785SOL     OW 8378   3.087   2.187   4.173
 2785SOL    HW1 8379   3.152   2.113   4.162
 2785SOL    HW2 8380   3.107   2.237   4.257
 2786SOL     OW 8381   2.456   2.607   4.376
 2786SOL    HW1 8382   2.506   2.692   4.357
 2786SOL    HW2 8383   2.368   2.609   4.328
 2787SOL     OW 8384   3.592   2.796   5.241
 2787SOL    HW1 8385   3.630   2.887   5.256
 2787SOL    HW2 8386   3.584   2.779   5.142
 2788SOL     OW 8387   2.721   3.236   3.740
 2788SOL    HW1 8388   2.675   3.251   3.828
 2788SOL    HW2 8389   2.765   3.321   3.710
 2789SOL     OW 8390   2.523   3.652   4.677
 2789SOL    HW1 8391   2.477   3.740   4.664
 2789SOL    HW2 8392   2.622   3.664   4.670
 2790SOL     OW 8393   2.721   2.818   4.585
 2790SOL    HW1 8394   2.775   2.749   4.633
 2790SOL    HW2 8395   2.689   2.887   4.651
 2791SOL     OW 8396   2.945   2.846   3.811
 2791SOL    HW1 8397   2.922   2.899   3.729
 2791SOL    HW2 8398   3.026   2.790   3.792
 2792SOL     OW 8399   3.723   3.431   4.575
 2792SOL    HW1 8400   3.652   3.419   4.505
 2792SOL    HW2 8401   3.724   3.352   4.635
 2793SOL     OW 8402   1.941   3.102   4.377
 2793SOL    HW1 8403   1.940   3.055   4.465
 2793SOL    HW2 8404   2.023   3.074   4.326
 2794SOL     OW 8405   3.686   2.054   4.951
 2794SOL    HW1 8406   3.682   1.964   4.995
 2794SOL    HW2 8407   3.689   2.043   4.852
 2795SOL     OW 8408   2.290   2.286   4.244
 2795SOL    HW1 8409   2.320   2.214   4.182
 2795SOL    HW2 8410   2.251   2.246   4.327
 2796SOL     OW 8411   3.567   3.349   4.828
 2796SOL    HW1 8412   3.474   3.324   4.801
 2796SOL    HW2 8413   3.593   3.299   4.910
 2797SOL     OW 8414   2.179   2.409   5.004
 2797SOL    HW1 8415   2.217   2.350   5.076
 2797SOL    HW2 8416   2.219   2.383   4.916
 2798SOL     OW 8417   2.674   3.448   4.411
 2798SOL    HW1 8418   2.706   3.458   4.317
 2798SOL    HW2 8419   2.595   3.386   4.413
 2799SOL     OW 8420   3.286   2.076   4.836
 2799SOL    HW1 8421   3.338   2.011   4.891
 2799SOL    HW2 8422   3.237   2.139   4.897
 2800SOL     OW 8423   2.863   1.896   4.878
 2800SOL    HW1 8424   2.800   1.824   4.847
 2800SOL    HW2 8425   2.956   1.860   4.878
 2801SOL     OW 8426   2.632   3.192   4.025
 2801SOL    HW1 8427   2.586   3.105   4.042
 2801SOL    HW2 8428   2.723   3.189   4.066
 2802SOL     OW 8429   2.480   3.429   5.008
 2802SOL    HW1 8430   2.475   3.511   5.065
 2802SOL    HW2 8431   2.569   3.426   4.963
 2803SOL     OW 8432   3.214   1.914   3.892
 2803SOL    HW1 8433   3.249   1.873   3.808
 2803SOL    HW2 8434   3.124   1.876   3.912
 2804SOL     OW 8435   3.162   2.315   4.415
 2804SOL    HW1 8436   3.103   2.395   4.419
 2804SOL    HW2 8437   3.177   2.280   4.508
 2805SOL     OW 8438   3.455   2.083   4.606
 2805SOL    HW1 8439   3.371   2.082   4.660
 2805SOL    HW2 8440   3.457   2.166   4.550
 2806SOL     OW 8441   1.901   2.939   4.024
 2806SOL    HW1 8442   2.000   2.928   4.015
 2806SOL    HW2 8443   1.861   2.853   4.056
 2807SOL     OW 8444   2.737   3.508   4.061
 2807SOL    HW1 8445   2.660   3.473   4.007
 2807SOL    HW2 8446   2.705   3.579   4.123
 2808SOL     OW 8447   2.092   4.352   0.113
 2808SOL    HW1 8448   1.999   4.350   0.150
 2808SOL    HW2 8449   2.093   4.313   0.021
 2809SOL     OW 8450   2.087   3.999   0.996
 2809SOL    HW1 8451   2.122   3.982   1.088
 2809SOL    HW2 8452   1.999   3.954   0.984
 2810SOL     OW 8453   1.881   4.092   0.647
 2810SOL    HW1 8454   1.799   4.135   0.686
 2810SOL    HW2 8455   1.853   4.019   0.584
 2811SOL     OW 8456   2.431   4.999   1.165
 2811SOL    HW1 8457   2.338   4.992   1.128
 2811SOL    HW2 8458   2.442   5.088   1.209
 2812SOL     OW 8459   3.417   5.235   0.703
 2812SOL    HW1 8460   3.360   5.219   0.784
 2812SOL    HW2 8461   3.358   5.245   0.623
 2813SOL     OW 8462   2.997   4.427   0.717
 2813SOL    HW1 8463   3.054   4.505   0.692
 2813SOL    HW2 8464   2.937   4.453   0.793
 2814SOL     OW 8465   3.617   4.331   0.231
 2814SOL    HW1 8466   3.605   4.318   0.132
 2814SOL    HW2 8467   3.587   4.250   0.280
 2815SOL     OW 8468   2.630   4.868   1.023
 2815SOL    HW1 8469   2.552   4.885   1.083
 2815SOL    HW2 8470   2.664   4.955   0.987
 2816SOL     OW 8471   2.712   4.522   1.823
 2816SOL    HW1 8472   2.708   4.598   1.888
 2816SOL    HW2 8473   2.734   4.558   1.732
 2817SOL     OW 8474   2.547   4.736   0.665
 2817SOL    HW1 8475   2.616   4.720   0.735
 2817SOL    HW2 8476   2.474   4.793   0.703
 2818SOL     OW 8477   2.548   4.885   1.803
 2818SOL    HW1 8478   2.608   4.964   1.817
 2818SOL    HW2 8479   2.462   4.916   1.762
 2819SOL     OW 8480   2.197   5.159   1.061
 2819SOL    HW1 8481   2.119   5.128   1.008
 2819SOL    HW2 8482   2.255   5.217   1.004
 2820SOL     OW 8483   2.300   4.116   1.499
 2820SOL    HW1 8484   2.382   4.060   1.508
 2820SOL    HW2 8485   2.219   4.058   1.503
 2821SOL     OW 8486   3.465   4.171   0.737
 2821SOL    HW1 8487   3.391   4.217   0.687
 2821SOL    HW2 8488   3.516   4.239   0.790
 2822SOL     OW 8489   2.093   5.437   0.483
 2822SOL    HW1 8490   2.127   5.514   0.537
 2822SOL    HW2 8491   2.137   5.437   0.393
 2823SOL     OW 8492   2.989   5.065   1.690
 2823SOL    HW1 8493   3.036   5.065   1.778
 2823SOL    HW2 8494   2.941   4.978   1.679
 2824SOL     OW 8495   2.102   4.815   0.886
 2824SOL    HW1 8496   2.116   4.731   0.938
 2824SOL    HW2 8497   2.047   4.879   0.941
 2825SOL     OW 8498   2.468   4.688   0.123
 2825SOL    HW1 8499   2.475   4.772   0.069
 2825SOL    HW2 8500   2.514   4.701   0.211
 2826SOL     OW 8501   3.456   3.838   1.480
 2826SOL    HW1 8502   3.438   3.905   1.408
 2826SOL    HW2 8503   3.453   3.884   1.569
 2827SOL     OW 8504   1.984   4.367   0.563
 2827SOL    HW1 8505   1.939   4.279   0.580
 2827SOL    HW2 8506   1.983   4.421   0.647
 2828SOL     OW 8507   3.551   4.646   0.612
 2828SOL    HW1 8508   3.646   4.617   0.620
 2828SOL    HW2 8509   3.543   4.711   0.537
 2829SOL     OW 8510   3.503   4.832   0.432
 2829SOL    HW1 8511   3.589   4.834   0.380
 2829SOL    HW2 8512   3.517   4.879   0.520
 2830SOL     OW 8513   1.975   4.461   1.597
 2830SOL    HW1 8514   2.063   4.448   1.642
 2830SOL    HW2 8515   1.962   4.558   1.575
 2831SOL     OW 8516   2.475   5.089   0.726
 2831SOL    HW1 8517   2.426   5.002   0.735
 2831SOL    HW2 8518   2.452   5.132   0.639
 2832SOL     OW 8519   3.155   4.952   1.423
 2832SOL    HW1 8520   3.192   4.879   1.365
 2832SOL    HW2 8521   3.207   4.957   1.508
 2833SOL     OW 8522   2.671   3.728   0.502
 2833SOL    HW1 8523   2.711   3.819   0.493
 2833SOL    HW2 8524   2.571   3.736   0.508
 2834SOL     OW 8525   2.059   4.700   1.264
 2834SOL    HW1 8526   2.148   4.655   1.250
 2834SOL    HW2 8527   1.986   4.635   1.245
 2835SOL     OW 8528   3.387   4.723   0.190
 2835SOL    HW1 8529   3.324   4.647   0.203
 2835SOL    HW2 8530   3.435   4.741   0.276
 2836SOL     OW 8531   2.179   3.975   1.801
 2836SOL    HW1 8532   2.250   4.046   1.807
 2836SOL    HW2 8533   2.091   4.014   1.829
 2837SOL     OW 8534   3.328   5.141   0.953
 2837SOL    HW1 8535   3.269   5.147   1.033
 2837SOL    HW2 8536   3.313   5.053   0.907
 2838SOL     OW 8537   2.460   4.453   0.270
 2838SOL    HW1 8538   2.484   4.522   0.202
 2838SOL    HW2 8539   2.382   4.486   0.324
 2839SOL     OW 8540   3.143   4.069   0.944
 2839SOL    HW1 8541   3.057   4.019   0.931
 2839SOL    HW2 8542   3.205   4.015   1.000
 2840SOL     OW 8543   2.669   4.329   1.465
 2840SOL    HW1 8544   2.622   4.326   1.554
 2840SOL    HW2 8545   2.618   4.274   1.399
 2841SOL     OW 8546   3.256   4.193   1.674
 2841SOL    HW1 8547   3.236   4.236   1.762
 2841SOL    HW2 8548   3.334   4.131   1.683
 2842SOL     OW 8549   2.835   4.614   1.572
 2842SOL    HW1 8550   2.881   4.530   1.543
 2842SOL    HW2 8551   2.779   4.648   1.497
 2843SOL     OW 8552   2.853   4.134   1.242
 2843SOL    HW1 8553   2.776   4.168   1.296
 2843SOL    HW2 8554   2.819   4.083   1.163
 2844SOL     OW 8555   2.903   4.425   0.429
 2844SOL    HW1 8556   2.929   4.421   0.525
 2844SOL    HW2 8557   2.818   4.374   0.415
 2845SOL     OW 8558   1.938   4.535   0.789
 2845SOL    HW1 8559   2.037   4.523   0.798
 2845SOL    HW2 8560   1.914   4.630   0.810
 2846SOL     OW 8561   2.727   4.072   0.195
 2846SOL    HW1 8562   2.786   4.135   0.146
 2846SOL    HW2 8563   2.746   3.978   0.166
 2847SOL     OW 8564   3.581   4.309   1.831
 2847SOL    HW1 8565   3.555   4.398   1.795
 2847SOL    HW2 8566   3.579   4.241   1.758
 2848SOL     OW 8567   3.224   4.868   0.545
 2848SOL    HW1 8568   3.307   4.839   0.497
 2848SOL    HW2 8569   3.175   4.935   0.489
 2849SOL     OW 8570   2.412   3.920   0.885
 2849SOL    HW1 8571   2.407   3.915   0.985
 2849SOL    HW2 8572   2.414   4.016   0.856
 2850SOL     OW 8573   3.657   4.790   0.873
 2850SOL    HW1 8574   3.595   4.775   0.797
 2850SOL    HW2 8575   3.605   4.801   0.958
 2851SOL     OW 8576   2.183   4.667   0.242
 2851SOL    HW1 8577   2.265   4.706   0.200
 2851SOL    HW2 8578   2.156   4.585   0.193
 2852SOL     OW 8579   3.320   4.459   0.728
 2852SOL    HW1 8580   3.315   4.394   0.803
 2852SOL    HW2 8581   3.400   4.518   0.741
 2853SOL     OW 8582   2.323   4.990   1.727
 2853SOL    HW1 8583   2.273   4.991   1.641
 2853SOL    HW2 8584   2.260   4.972   1.803
 2854SOL     OW 8585   2.064   4.009   1.498
 2854SOL    HW1 8586   1.984   4.069   1.485
 2854SOL    HW2 8587   2.054   3.960   1.584
 2855SOL     OW 8588   3.494   5.101   0.081
 2855SOL    HW1 8589   3.462   5.195   0.071
 2855SOL    HW2 8590   3.418   5.038   0.069
 2856SOL     OW 8591   3.262   3.831   0.426
 2856SOL    HW1 8592   3.238   3.794   0.336
 2856SOL    HW2 8593   3.361   3.847   0.430
 2857SOL     OW 8594   2.244   4.424   0.480
 2857SOL    HW1 8595   2.289   4.334   0.477
 2857SOL    HW2 8596   2.150   4.413   0.513
 2858SOL     OW 8597   3.409   3.946   1.729
 2858SOL    HW1 8598   3.404   3.983   1.821
 2858SOL    HW2 8599   3.337   3.877   1.717
 2859SOL     OW 8600   2.643   3.988   1.749
 2859SOL    HW1 8601   2.710   3.927   1.792
 2859SOL    HW2 8602   2.570   4.007   1.814
 2860SOL     OW 8603   3.213   4.314   1.433
 2860SOL    HW1 8604   3.241   4.271   1.518
 2860SOL    HW2 8605   3.238   4.410   1.434
 2861SOL     OW 8606   2.784   4.227   0.899
 2861SOL    HW1 8607   2.759   4.218   0.803
 2861SOL    HW2 8608   2.832   4.145   0.930
 2862SOL     OW 8609   2.401   3.788   0.512
 2862SOL    HW1 8610   2.320   3.789   0.570
 2862SOL    HW2 8611   2.404   3.871   0.457
 2863SOL     OW 8612   3.296   4.912   0.041
 2863SOL    HW1 8613   3.328   4.836   0.098
 2863SOL    HW2 8614   3.204   4.939   0.071
 2864SOL     OW 8615   2.797   3.960   0.480
 2864SOL    HW1 8616   2.749   4.001   0.402
 2864SOL    HW2 8617   2.896   3.958   0.461
 2865SOL     OW 8618   2.938   4.407   1.464
 2865SOL    HW1 8619   2.858   4.346   1.467
 2865SOL    HW2 8620   3.019   4.354   1.440
 2866SOL     OW 8621   3.089   5.294   0.793
 2866SOL    HW1 8622   3.110   5.368   0.728
 2866SOL    HW2 8623   3.157   5.294   0.866
 2867SOL     OW 8624   2.321   4.876   0.741
 2867SOL    HW1 8625   2.250   4.849   0.806
 2867SOL    HW2 8626   2.295   4.848   0.648
 2868SOL     OW 8627   2.894   4.273   0.016
 2868SOL    HW1 8628   2.853   4.355  -0.023
 2868SOL    HW2 8629   2.958   4.299   0.089
 2869SOL     OW 8630   1.940   4.280   1.386
 2869SOL    HW1 8631   2.032   4.279   1.345
 2869SOL    HW2 8632   1.934   4.354   1.453
 2870SOL     OW 8633   2.423   3.946   1.147
 2870SOL    HW1 8634   2.461   3.862   1.184
 2870SOL    HW2 8635   2.335   3.965   1.191
 2871SOL     OW 8636   2.728   4.178   0.642
 2871SOL    HW1 8637   2.696   4.250   0.580
 2871SOL    HW2 8638   2.752   4.097   0.589
 2872SOL     OW 8639   2.879   3.763   0.753
 2872SOL    HW1 8640   2.807   3.768   0.684
 2872SOL    HW2 8641   2.855   3.694   0.822
 2873SOL     OW 8642   3.291   4.897   0.867
 2873SOL    HW1 8643   3.236   4.813   0.860
 2873SOL    HW2 8644   3.317   4.926   0.775
 2874SOL     OW 8645   3.328   4.314   0.992
 2874SOL    HW1 8646   3.298   4.219   0.999
 2874SOL    HW2 8647   3.401   4.330   1.058
 2875SOL     OW 8648   3.719   4.557   0.377
 2875SOL    HW1 8649   3.761   4.493   0.441
 2875SOL    HW2 8650   3.681   4.506   0.299
 2876SOL     OW 8651   3.526   5.004   0.657
 2876SOL    HW1 8652   3.625   5.012   0.671
 2876SOL    HW2 8653   3.481   5.088   0.688
 2877SOL     OW 8654   3.252   4.299   0.078
 2877SOL    HW1 8655   3.198   4.278   0.159
 2877SOL    HW2 8656   3.343   4.258   0.087
 2878SOL     OW 8657   2.389   3.980   0.328
 2878SOL    HW1 8658   2.416   3.921   0.253
 2878SOL    HW2 8659   2.389   4.075   0.297
 2879SOL     OW 8660   3.616   4.947   1.588
 2879SOL    HW1 8661   3.707   4.908   1.575
 2879SOL    HW2 8662   3.624   5.043   1.612
 2880SOL     OW 8663   2.926   5.071   1.340
 2880SOL    HW1 8664   2.846   5.048   1.395
 2880SOL    HW2 8665   3.009   5.045   1.389
 2881SOL     OW 8666   2.973   4.919   1.100
 2881SOL    HW1 8667   2.933   4.963   1.181
 2881SOL    HW2 8668   2.932   4.956   1.017
 2882SOL     OW 8669   3.500   4.823   1.079
 2882SOL    HW1 8670   3.505   4.904   1.138
 2882SOL    HW2 8671   3.414   4.825   1.028
 2883SOL     OW 8672   2.777   3.813   1.402
 2883SOL    HW1 8673   2.802   3.793   1.307
 2883SOL    HW2 8674   2.849   3.869   1.444
 2884SOL     OW 8675   2.842   4.840   1.719
 2884SOL    HW1 8676   2.743   4.846   1.729
 2884SOL    HW2 8677   2.865   4.760   1.663
 2885SOL     OW 8678   2.567   4.774   0.368
 2885SOL    HW1 8679   2.553   4.781   0.467
 2885SOL    HW2 8680   2.651   4.723   0.350
 2886SOL     OW 8681   2.272   4.537   1.251
 2886SOL    HW1 8682   2.358   4.549   1.301
 2886SOL    HW2 8683   2.230   4.450   1.278
 2887SOL     OW 8684   3.136   4.110   1.262
 2887SOL    HW1 8685   3.157   4.184   1.326
 2887SOL    HW2 8686   3.047   4.127   1.219
 2888SOL     OW 8687   2.229   4.824   0.501
 2888SOL    HW1 8688   2.222   4.907   0.445
 2888SOL    HW2 8689   2.233   4.744   0.441
 2889SOL     OW 8690   2.428   4.261   0.865
 2889SOL    HW1 8691   2.440   4.327   0.791
 2889SOL    HW2 8692   2.474   4.295   0.948
 2890SOL     OW 8693   3.114   5.072   0.388
 2890SOL    HW1 8694   3.164   5.149   0.428
 2890SOL    HW2 8695   3.019   5.074   0.420
 2891SOL     OW 8696   3.134   5.169   1.142
 2891SOL    HW1 8697   3.181   5.182   1.229
 2891SOL    HW2 8698   3.068   5.095   1.151
 2892SOL     OW 8699   3.444   4.363   0.472
 2892SOL    HW1 8700   3.413   4.424   0.545
 2892SOL    HW2 8701   3.494   4.415   0.403
 2893SOL     OW 8702   2.264   4.475   1.598
 2893SOL    HW1 8703   2.332   4.530   1.551
 2893SOL    HW2 8704   2.304   4.387   1.625
 2894SOL     OW 8705   3.449   4.503   1.670
 2894SOL    HW1 8706   3.357   4.541   1.665
 2894SOL    HW2 8707   3.509   4.550   1.605
 2895SOL     OW 8708   2.875   3.829   1.770
 2895SOL    HW1 8709   2.881   3.914   1.718
 2895SOL    HW2 8710   2.907   3.753   1.713
 2896SOL     OW 8711   2.366   3.774   1.740
 2896SOL    HW1 8712   2.324   3.717   1.670
 2896SOL    HW2 8713   2.300   3.843   1.772
 2897SOL     OW 8714   2.435   4.594   1.029
 2897SOL    HW1 8715   2.479   4.683   1.020
 2897SOL    HW2 8716   2.372   4.594   1.106
 2898SOL     OW 8717   3.222   4.586   1.045
 2898SOL    HW1 8718   3.147   4.586   0.979
 2898SOL    HW2 8719   3.259   4.494   1.054
 2899SOL     OW 8720   3.071   4.249   0.275
 2899SOL    HW1 8721   3.084   4.165   0.329
 2899SOL    HW2 8722   3.042   4.323   0.335
 2900SOL     OW 8723   2.169   3.937   1.231
 2900SOL    HW1 8724   2.146   3.974   1.321
 2900SOL    HW2 8725   2.139   3.842   1.225
 2901SOL     OW 8726   1.899   5.034   1.282
 2901SOL    HW1 8727   1.952   4.985   1.350
 2901SOL    HW2 8728   1.921   5.132   1.287
 2902SOL     OW 8729   2.594   4.358   1.064
 2902SOL    HW1 8730   2.653   4.332   0.988
 2902SOL    HW2 8731   2.566   4.454   1.053
 2903SOL     OW 8732   3.590   4.659   1.854
 2903SOL    HW1 8733   3.544   4.652   1.765
 2903SOL    HW2 8734   3.528   4.703   1.920
 2904SOL     OW 8735   2.169   3.787   0.618
 2904SOL    HW1 8736   2.158   3.881   0.651
 2904SOL    HW2 8737   2.164   3.724   0.695
 2905SOL     OW 8738   3.484   4.091   0.374
 2905SOL    HW1 8739   3.486   4.015   0.438
 2905SOL    HW2 8740   3.436   4.168   0.414
 2906SOL     OW 8741   2.885   4.490   0.966
 2906SOL    HW1 8742   2.900   4.511   1.062
 2906SOL    HW2 8743   2.855   4.395   0.957
 2907SOL     OW 8744   3.721   5.242   1.605
 2907SOL    HW1 8745   3.735   5.269   1.510
 2907SOL    HW2 8746   3.804   5.264   1.658
 2908SOL     OW 8747   2.212   4.622   1.804
 2908SOL    HW1 8748   2.288   4.666   1.852
 2908SOL    HW2 8749   2.247   4.575   1.722
 2909SOL     OW 8750   3.402   3.998   0.125
 2909SOL    HW1 8751   3.341   3.923   0.148
 2909SOL    HW2 8752   3.424   4.050   0.208
 2910SOL     OW 8753   3.165   4.562   0.042
 2910SOL    HW1 8754   3.199   4.469   0.057
 2910SOL    HW2 8755   3.183   4.589  -0.053
 2911SOL     OW 8756   2.181   4.534   0.949
 2911SOL    HW1 8757   2.274   4.570   0.954
 2911SOL    HW2 8758   2.175   4.449   1.001
 2912SOL     OW 8759   2.201   4.233   1.006
 2912SOL    HW1 8760   2.149   4.150   0.989
 2912SOL    HW2 8761   2.278   4.238   0.942
 2913SOL     OW 8762   3.000   4.104   1.678
 2913SOL    HW1 8763   2.955   4.167   1.742
 2913SOL    HW2 8764   3.093   4.135   1.661
 2914SOL     OW 8765   3.022   3.931   1.477
 2914SOL    HW1 8766   3.022   3.995   1.554
 2914SOL    HW2 8767   3.050   3.979   1.394
 2915SOL     OW 8768   2.864   4.520   1.238
 2915SOL    HW1 8769   2.905   4.488   1.324
 2915SOL    HW2 8770   2.768   4.493   1.235
 2916SOL     OW 8771   1.902   4.268   1.114
 2916SOL    HW1 8772   1.987   4.235   1.073
 2916SOL    HW2 8773   1.915   4.283   1.212
 2917SOL     OW 8774   2.051   4.244   1.722
 2917SOL    HW1 8775   2.110   4.204   1.652
 2917SOL    HW2 8776   1.993   4.315   1.681
 2918SOL     OW 8777   3.231   4.674   1.660
 2918SOL    HW1 8778   3.270   4.763   1.680
 2918SOL    HW2 8779   3.241   4.654   1.563
 2919SOL     OW 8780   2.677   4.296   0.325
 2919SOL    HW1 8781   2.684   4.207   0.279
 2919SOL    HW2 8782   2.583   4.330   0.317
 2920SOL     OW 8783   3.519   4.328   1.206
 2920SOL    HW1 8784   3.481   4.259   1.268
 2920SOL    HW2 8785   3.601   4.292   1.162
 2921SOL     OW 8786   2.533   4.188   1.269
 2921SOL    HW1 8787   2.499   4.099   1.239
 2921SOL    HW2 8788   2.559   4.242   1.189
 2922SOL     OW 8789   2.335   4.224   0.191
 2922SOL    HW1 8790   2.396   4.304   0.195
 2922SOL    HW2 8791   2.240   4.255   0.198
 2923SOL     OW 8792   2.021   4.861   1.466
 2923SOL    HW1 8793   2.043   4.800   1.542
 2923SOL    HW2 8794   2.031   4.812   1.380
 2924SOL     OW 8795   3.209   4.783   1.234
 2924SOL    HW1 8796   3.233   4.720   1.160
 2924SOL    HW2 8797   3.119   4.823   1.216
 2925SOL     OW 8798   3.164   4.579   0.309
 2925SOL    HW1 8799   3.078   4.548   0.351
 2925SOL    HW2 8800   3.160   4.565   0.210
 2926SOL     OW 8801   1.945   4.982   1.022
 2926SOL    HW1 8802   1.940   4.981   1.122
 2926SOL    HW2 8803   1.862   4.941   0.984
 2927SOL     OW 8804   2.765   3.810   0.133
 2927SOL    HW1 8805   2.816   3.811   0.047
 2927SOL    HW2 8806   2.821   3.768   0.204
 2928SOL     OW 8807   3.588   3.859   0.523
 2928SOL    HW1 8808   3.661   3.842   0.456
 2928SOL    HW2 8809   3.557   3.772   0.561
 2929SOL     OW 8810   3.142   4.651   0.672
 2929SOL    HW1 8811   3.202   4.570   0.674
 2929SOL    HW2 8812   3.182   4.720   0.612
 2930SOL     OW 8813   2.692   4.997   1.422
 2930SOL    HW1 8814   2.687   5.030   1.517
 2930SOL    HW2 8815   2.606   5.016   1.376
 2931SOL     OW 8816   3.703   3.899   0.963
 2931SOL    HW1 8817   3.742   3.814   0.927
 2931SOL    HW2 8818   3.605   3.901   0.944
 2932SOL     OW 8819   2.125   4.050   0.720
 2932SOL    HW1 8820   2.046   4.101   0.686
 2932SOL    HW2 8821   2.116   4.035   0.818
 2933SOL     OW 8822   2.684   4.726   1.372
 2933SOL    HW1 8823   2.724   4.725   1.280
 2933SOL    HW2 8824   2.694   4.818   1.412
 2934SOL     OW 8825   2.778   4.634   0.291
 2934SOL    HW1 8826   2.841   4.672   0.223
 2934SOL    HW2 8827   2.818   4.551   0.330
 2935SOL     OW 8828   2.234   5.012   1.490
 2935SOL    HW1 8829   2.221   5.105   1.456
 2935SOL    HW2 8830   2.150   4.960   1.477
 2936SOL     OW 8831   3.476   5.016   1.289
 2936SOL    HW1 8832   3.536   5.019   1.369
 2936SOL    HW2 8833   3.401   5.080   1.302
 2937SOL     OW 8834   2.901   4.822   0.696
 2937SOL    HW1 8835   2.831   4.775   0.750
 2937SOL    HW2 8836   2.960   4.754   0.653
 2938SOL     OW 8837   2.876   3.960   0.971
 2938SOL    HW1 8838   2.868   3.924   0.878
 2938SOL    HW2 8839   2.874   3.884   1.036
 2939SOL     OW 8840   3.571   4.109   1.381
 2939SOL    HW1 8841   3.644   4.178   1.385
 2939SOL    HW2 8842   3.599   4.034   1.322
 2940SOL     OW 8843   1.967   4.737   1.726
 2940SOL    HW1 8844   1.890   4.704   1.780
 2940SOL    HW2 8845   2.052   4.707   1.768
 2941SOL     OW 8846   2.534   3.927   1.489
 2941SOL    HW1 8847   2.624   3.911   1.449
 2941SOL    HW2 8848   2.542   3.932   1.588
 2942SOL     OW 8849   1.937   4.069   0.033
 2942SOL    HW1 8850   1.845   4.041   0.004
 2942SOL    HW2 8851   1.968   4.146  -0.023
 2943SOL     OW 8852   3.302   4.580   1.398
 2943SOL    HW1 8853   3.245   4.632   1.335
 2943SOL    HW2 8854   3.398   4.592   1.374
 2944SOL     OW 8855   1.934   3.890   0.318
 2944SOL    HW1 8856   1.917   3.973   0.264
 2944SOL    HW2 8857   2.024   3.853   0.296
 2945SOL     OW 8858   2.475   4.566   1.431
 2945SOL    HW1 8859   2.531   4.647   1.414
 2945SOL    HW2 8860   2.534   4.486   1.434
 2946SOL     OW 8861   2.578   4.289   1.708
 2946SOL    HW1 8862   2.597   4.354   1.782
 2946SOL    HW2 8863   2.638   4.209   1.717
 2947SOL     OW 8864   3.312   4.944   1.633
 2947SOL    HW1 8865   3.303   4.934   1.732
 2947SOL    HW2 8866   3.408   4.937   1.607
 2948SOL     OW 8867   3.536   4.607   1.254
 2948SOL    HW1 8868   3.509   4.518   1.217
 2948SOL    HW2 8869   3.537   4.675   1.181
 2949SOL     OW 8870   3.087   4.049   0.449
 2949SOL    HW1 8871   3.152   3.975   0.438
 2949SOL    HW2 8872   3.107   4.099   0.533
 2950SOL     OW 8873   2.456   4.469   0.652
 2950SOL    HW1 8874   2.506   4.554   0.633
 2950SOL    HW2 8875   2.368   4.471   0.604
 2951SOL     OW 8876   3.639   4.066   1.642
 2951SOL    HW1 8877   3.622   4.097   1.548
 2951SOL    HW2 8878   3.555   4.029   1.680
 2952SOL     OW 8879   3.592   4.658   1.517
 2952SOL    HW1 8880   3.630   4.749   1.532
 2952SOL    HW2 8881   3.584   4.641   1.418
 2953SOL     OW 8882   2.721   4.680   0.861
 2953SOL    HW1 8883   2.775   4.611   0.909
 2953SOL    HW2 8884   2.689   4.749   0.927
 2954SOL     OW 8885   2.945   4.708   0.087
 2954SOL    HW1 8886   2.922   4.761   0.005
 2954SOL    HW2 8887   3.026   4.652   0.068
 2955SOL     OW 8888   2.083   5.038   1.844
 2955SOL    HW1 8889   2.018   4.965   1.823
 2955SOL    HW2 8890   2.087   5.052   1.942
 2956SOL     OW 8891   1.941   4.964   0.653
 2956SOL    HW1 8892   1.940   4.917   0.741
 2956SOL    HW2 8893   2.023   4.936   0.602
 2957SOL     OW 8894   2.534   5.115   1.624
 2957SOL    HW1 8895   2.456   5.065   1.662
 2957SOL    HW2 8896   2.531   5.210   1.655
 2958SOL     OW 8897   3.686   3.916   1.227
 2958SOL    HW1 8898   3.682   3.826   1.271
 2958SOL    HW2 8899   3.689   3.905   1.128
 2959SOL     OW 8900   2.290   4.148   0.520
 2959SOL    HW1 8901   2.320   4.076   0.458
 2959SOL    HW2 8902   2.251   4.108   0.603
 2960SOL     OW 8903   3.567   5.211   1.104
 2960SOL    HW1 8904   3.474   5.186   1.077
 2960SOL    HW2 8905   3.593   5.161   1.186
 2961SOL     OW 8906   2.179   4.271   1.280
 2961SOL    HW1 8907   2.217   4.212   1.352
 2961SOL    HW2 8908   2.219   4.245   1.192
 2962SOL     OW 8909   3.286   3.938   1.112
 2962SOL    HW1 8910   3.338   3.873   1.167
 2962SOL    HW2 8911   3.237   4.001   1.173
 2963SOL     OW 8912   2.863   3.758   1.154
 2963SOL    HW1 8913   2.800   3.686   1.123
 2963SOL    HW2 8914   2.956   3.722   1.154
 2964SOL     OW 8915   2.632   5.054   0.301
 2964SOL    HW1 8916   2.586   4.967   0.318
 2964SOL    HW2 8917   2.723   5.051   0.342
 2965SOL     OW 8918   3.214   3.776   0.168
 2965SOL    HW1 8919   3.249   3.735   0.084
 2965SOL    HW2 8920   3.124   3.738   0.188
 2966SOL     OW 8921   3.162   4.177   0.691
 2966SOL    HW1 8922   3.103   4.257   0.695
 2966SOL    HW2 8923   3.177   4.142   0.784
 2967SOL     OW 8924   3.455   3.945   0.882
 2967SOL    HW1 8925   3.371   3.944   0.936
 2967SOL    HW2 8926   3.457   4.028   0.826
 2968SOL     OW 8927   1.901   4.801   0.300
 2968SOL    HW1 8928   2.000   4.790   0.291
 2968SOL    HW2 8929   1.861   4.715   0.332
 2969SOL     OW 8930   2.092   4.352   1.975
 2969SOL    HW1 8931   1.999   4.350   2.012
 2969SOL    HW2 8932   2.093   4.313   1.883
 2970SOL     OW 8933   2.087   3.999   2.858
 2970SOL    HW1 8934   2.122   3.982   2.950
 2970SOL    HW2 8935   1.999   3.954   2.846
 2971SOL     OW 8936   1.881   4.092   2.509
 2971SOL    HW1 8937   1.799   4.135   2.548
 2971SOL    HW2 8938   1.853   4.019   2.446
 2972SOL     OW 8939   2.431   4.999   3.027
 2972SOL    HW1 8940   2.338   4.992   2.990
 2972SOL    HW2 8941   2.442   5.088   3.071
 2973SOL     OW 8942   3.417   5.235   2.565
 2973SOL    HW1 8943   3.360   5.219   2.646
 2973SOL    HW2 8944   3.358   5.245   2.485
 2974SOL     OW 8945   2.997   4.427   2.579
 2974SOL    HW1 8946   3.054   4.505   2.554
 2974SOL    HW2 8947   2.937   4.453   2.655
 2975SOL     OW 8948   3.617   4.331   2.093
 2975SOL    HW1 8949   3.605   4.318   1.994
 2975SOL    HW2 8950   3.587   4.250   2.142
 2976SOL     OW 8951   2.630   4.868   2.885
 2976SOL    HW1 8952   2.552   4.885   2.945
 2976SOL    HW2 8953   2.664   4.955   2.849
 2977SOL     OW 8954   2.712   4.522   3.685
 2977SOL    HW1 8955   2.708   4.598   3.750
 2977SOL    HW2 8956   2.734   4.558   3.594
 2978SOL     OW 8957   2.547   4.736   2.527
 2978SOL    HW1 8958   2.616   4.720   2.597
 2978SOL    HW2 8959   2.474   4.793   2.565
 2979SOL     OW 8960   2.548   4.885   3.665
 2979SOL    HW1 8961   2.608   4.964   3.679
 2979SOL    HW2 8962   2.462   4.916   3.624
 2980SOL     OW 8963   2.197   5.159   2.923
 2980SOL    HW1 8964   2.119   5.128   2.870
 2980SOL    HW2 8965   2.255   5.217   2.866
 2981SOL     OW 8966   2.300   4.116   3.361
 2981SOL    HW1 8967   2.382   4.060   3.370
 2981SOL    HW2 8968   2.219   4.058   3.365
 2982SOL     OW 8969   3.465   4.171   2.599
 2982SOL    HW1 8970   3.391   4.217   2.549
 2982SOL    HW2 8971   3.516   4.239   2.652
 2983SOL     OW 8972   2.093   5.437   2.345
 2983SOL    HW1 8973   2.127   5.514   2.399
 2983SOL    HW2 8974   2.137   5.437   2.255
 2984SOL     OW 8975   2.989   5.065   3.552
 2984SOL    HW1 8976   3.036   5.065   3.640
 2984SOL    HW2 8977   2.941   4.978   3.541
 2985SOL     OW 8978   2.102   4.815   2.748
 2985SOL    HW1 8979   2.116   4.731   2.800
 2985SOL    HW2 8980   2.047   4.879   2.803
 2986SOL     OW 8981   2.468   4.688   1.985
 2986SOL    HW1 8982   2.475   4.772   1.931
 2986SOL    HW2 8983   2.514   4.701   2.073
 2987SOL     OW 8984   3.456   3.838   3.342
 2987SOL    HW1 8985   3.438   3.905   3.270
 2987SOL    HW2 8986   3.453   3.884   3.431
 2988SOL     OW 8987   1.984   4.367   2.425
 2988SOL    HW1 8988   1.939   4.279   2.442
 2988SOL    HW2 8989   1.983   4.421   2.509
 2989SOL     OW 8990   3.551   4.646   2.474
 2989SOL    HW1 8991   3.646   4.617   2.482
 2989SOL    HW2 8992   3.543   4.711   2.399
 2990SOL     OW 8993   3.503   4.832   2.294
 2990SOL    HW1 8994   3.589   4.834   2.242
 2990SOL    HW2 8995   3.517   4.879   2.382
 2991SOL     OW 8996   1.975   4.461   3.459
 2991SOL    HW1 8997   2.063   4.448   3.504
 2991SOL    HW2 8998   1.962   4.558   3.437
 2992SOL     OW 8999   2.475   5.089   2.588
 2992SOL    HW1 9000   2.426   5.002   2.597
 2992SOL    HW2 9001   2.452   5.132   2.501
 2993SOL     OW 9002   3.155   4.952   3.285
 2993SOL    HW1 9003   3.192   4.879   3.227
 2993SOL    HW2 9004   3.207   4.957   3.370
 2994SOL     OW 9005   2.671   3.728   2.364
 2994SOL    HW1 9006   2.711   3.819   2.355
 2994SOL    HW2 9007   2.571   3.736   2.370
 2995SOL     OW 9008   2.059   4.700   3.126
 2995SOL    HW1 9009   2.148   4.655   3.112
 2995SOL    HW2 9010   1.986   4.635   3.107
 2996SOL     OW 9011   3.387   4.723   2.052
 2996SOL    HW1 9012   3.324   4.647   2.065
 2996SOL    HW2 9013   3.435   4.741   2.138
 2997SOL     OW 9014   2.179   3.975   3.663
 2997SOL    HW1 9015   2.250   4.046   3.669
 2997SOL    HW2 9016   2.091   4.014   3.691
 2998SOL     OW 9017   3.328   5.141   2.815
 2998SOL    HW1 9018   3.269   5.147   2.895
 2998SOL    HW2 9019   3.313   5.053   2.769
 2999SOL     OW 9020   2.460   4.453   2.132
 2999SOL    HW1 9021   2.484   4.522   2.064
 2999SOL    HW2 9022   2.382   4.486   2.186
 3000SOL     OW 9023   3.143   4.069   2.806
 3000SOL    HW1 9024   3.057   4.019   2.793
 3000SOL    HW2 9025   3.205   4.015   2.862
 3001SOL     OW 9026   2.669   4.329   3.327
 3001SOL    HW1 9027   2.622   4.326   3.416
 3001SOL    HW2 9028   2.618   4.274   3.261
 3002SOL     OW 9029   3.256   4.193   3.536
 3002SOL    HW1 9030   3.236   4.236   3.624
 3002SOL    HW2 9031   3.334   4.131   3.545
 3003SOL     OW 9032   2.835   4.614   3.434
 3003SOL    HW1 9033   2.881   4.530   3.405
 3003SOL    HW2 9034   2.779   4.648   3.359
 3004SOL     OW 9035   2.853   4.134   3.104
 3004SOL    HW1 9036   2.776   4.168   3.158
 3004SOL    HW2 9037   2.819   4.083   3.025
 3005SOL     OW 9038   2.903   4.425   2.291
 3005SOL    HW1 9039   2.929   4.421   2.387
 3005SOL    HW2 9040   2.818   4.374   2.277
 3006SOL     OW 9041   1.938   4.535   2.651
 3006SOL    HW1 9042   2.037   4.523   2.660
 3006SOL    HW2 9043   1.914   4.630   2.672
 3007SOL     OW 9044   2.727   4.072   2.057
 3007SOL    HW1 9045   2.786   4.135   2.008
 3007SOL    HW2 9046   2.746   3.978   2.028
 3008SOL     OW 9047   3.581   4.309   3.693
 3008SOL    HW1 9048   3.555   4.398   3.657
 3008SOL    HW2 9049   3.579   4.241   3.620
 3009SOL     OW 9050   3.224   4.868   2.407
 3009SOL    HW1 9051   3.307   4.839   2.359
 3009SOL    HW2 9052   3.175   4.935   2.351
 3010SOL     OW 9053   2.412   3.920   2.747
 3010SOL    HW1 9054   2.407   3.915   2.847
 3010SOL    HW2 9055   2.414   4.016   2.718
 3011SOL     OW 9056   3.657   4.790   2.735
 3011SOL    HW1 9057   3.595   4.775   2.659
 3011SOL    HW2 9058   3.605   4.801   2.820
 3012SOL     OW 9059   2.183   4.667   2.104
 3012SOL    HW1 9060   2.265   4.706   2.062
 3012SOL    HW2 9061   2.156   4.585   2.055
 3013SOL     OW 9062   3.320   4.459   2.590
 3013SOL    HW1 9063   3.315   4.394   2.665
 3013SOL    HW2 9064   3.400   4.518   2.603
 3014SOL     OW 9065   2.323   4.990   3.589
 3014SOL    HW1 9066   2.273   4.991   3.503
 3014SOL    HW2 9067   2.260   4.972   3.665
 3015SOL     OW 9068   2.973   5.500   2.099
 3015SOL    HW1 9069   2.913   5.438   2.149
 3015SOL    HW2 9070   3.004   5.456   2.014
 3016SOL     OW 9071   2.064   4.009   3.360
 3016SOL    HW1 9072   1.984   4.069   3.347
 3016SOL    HW2 9073   2.054   3.960   3.446
 3017SOL     OW 9074   3.494   5.101   1.943
 3017SOL    HW1 9075   3.462   5.195   1.933
 3017SOL    HW2 9076   3.418   5.038   1.931
 3018SOL     OW 9077   3.262   3.831   2.288
 3018SOL    HW1 9078   3.238   3.794   2.198
 3018SOL    HW2 9079   3.361   3.847   2.292
 3019SOL     OW 9080   2.244   4.424   2.342
 3019SOL    HW1 9081   2.289   4.334   2.339
 3019SOL    HW2 9082   2.150   4.413   2.375
 3020SOL     OW 9083   3.409   3.946   3.591
 3020SOL    HW1 9084   3.404   3.983   3.683
 3020SOL    HW2 9085   3.337   3.877   3.579
 3021SOL     OW 9086   2.476   3.846   1.979
 3021SOL    HW1 9087   2.574   3.824   1.986
 3021SOL    HW2 9088   2.445   3.829   1.886
 3022SOL     OW 9089   2.643   3.988   3.611
 3022SOL    HW1 9090   2.710   3.927   3.654
 3022SOL    HW2 9091   2.570   4.007   3.676
 3023SOL     OW 9092   3.213   4.314   3.295
 3023SOL    HW1 9093   3.241   4.271   3.380
 3023SOL    HW2 9094   3.238   4.410   3.296
 3024SOL     OW 9095   2.784   4.227   2.761
 3024SOL    HW1 9096   2.759   4.218   2.665
 3024SOL    HW2 9097   2.832   4.145   2.792
 3025SOL     OW 9098   2.401   3.788   2.374
 3025SOL    HW1 9099   2.320   3.789   2.432
 3025SOL    HW2 9100   2.404   3.871   2.319
 3026SOL     OW 9101   3.296   4.912   1.903
 3026SOL    HW1 9102   3.328   4.836   1.960
 3026SOL    HW2 9103   3.204   4.939   1.933
 3027SOL     OW 9104   2.159   3.759   2.033
 3027SOL    HW1 9105   2.208   3.843   2.012
 3027SOL    HW2 9106   2.221   3.694   2.078
 3028SOL     OW 9107   2.797   3.960   2.342
 3028SOL    HW1 9108   2.749   4.001   2.264
 3028SOL    HW2 9109   2.896   3.958   2.323
 3029SOL     OW 9110   2.938   4.407   3.326
 3029SOL    HW1 9111   2.858   4.346   3.329
 3029SOL    HW2 9112   3.019   4.354   3.302
 3030SOL     OW 9113   3.089   5.294   2.655
 3030SOL    HW1 9114   3.110   5.368   2.590
 3030SOL    HW2 9115   3.157   5.294   2.728
 3031SOL     OW 9116   2.321   4.876   2.603
 3031SOL    HW1 9117   2.250   4.849   2.668
 3031SOL    HW2 9118   2.295   4.848   2.510
 3032SOL     OW 9119   2.894   4.273   1.878
 3032SOL    HW1 9120   2.853   4.355   1.839
 3032SOL    HW2 9121   2.958   4.299   1.951
 3033SOL     OW 9122   1.940   4.280   3.248
 3033SOL    HW1 9123   2.032   4.279   3.207
 3033SOL    HW2 9124   1.934   4.354   3.315
 3034SOL     OW 9125   2.423   3.946   3.009
 3034SOL    HW1 9126   2.461   3.862   3.046
 3034SOL    HW2 9127   2.335   3.965   3.053
 3035SOL     OW 9128   2.728   4.178   2.504
 3035SOL    HW1 9129   2.696   4.250   2.442
 3035SOL    HW2 9130   2.752   4.097   2.451
 3036SOL     OW 9131   2.879   3.763   2.615
 3036SOL    HW1 9132   2.807   3.768   2.546
 3036SOL    HW2 9133   2.855   3.694   2.684
 3037SOL     OW 9134   3.291   4.897   2.729
 3037SOL    HW1 9135   3.236   4.813   2.722
 3037SOL    HW2 9136   3.317   4.926   2.637
 3038SOL     OW 9137   3.328   4.314   2.854
 3038SOL    HW1 9138   3.298   4.219   2.861
 3038SOL    HW2 9139   3.401   4.330   2.920
 3039SOL     OW 9140   3.719   4.557   2.239
 3039SOL    HW1 9141   3.761   4.493   2.303
 3039SOL    HW2 9142   3.681   4.506   2.161
 3040SOL     OW 9143   3.526   5.004   2.519
 3040SOL    HW1 9144   3.625   5.012   2.533
 3040SOL    HW2 9145   3.481   5.088   2.550
 3041SOL     OW 9146   3.252   4.299   1.940
 3041SOL    HW1 9147   3.198   4.278   2.021
 3041SOL    HW2 9148   3.343   4.258   1.949
 3042SOL     OW 9149   2.389   3.980   2.190
 3042SOL    HW1 9150   2.416   3.921   2.115
 3042SOL    HW2 9151   2.389   4.075   2.159
 3043SOL     OW 9152   3.616   4.947   3.450
 3043SOL    HW1 9153   3.707   4.908   3.437
 3043SOL    HW2 9154   3.624   5.043   3.474
 3044SOL     OW 9155   2.926   5.071   3.202
 3044SOL    HW1 9156   2.846   5.048   3.257
 3044SOL    HW2 9157   3.009   5.045   3.251
 3045SOL     OW 9158   2.973   4.919   2.962
 3045SOL    HW1 9159   2.933   4.963   3.043
 3045SOL    HW2 9160   2.932   4.956   2.879
 3046SOL     OW 9161   3.500   4.823   2.941
 3046SOL    HW1 9162   3.505   4.904   3.000
 3046SOL    HW2 9163   3.414   4.825   2.890
 3047SOL     OW 9164   2.777   3.813   3.264
 3047SOL    HW1 9165   2.802   3.793   3.169
 3047SOL    HW2 9166   2.849   3.869   3.306
 3048SOL     OW 9167   2.842   4.840   3.581
 3048SOL    HW1 9168   2.743   4.846   3.591
 3048SOL    HW2 9169   2.865   4.760   3.525
 3049SOL     OW 9170   2.567   4.774   2.230
 3049SOL    HW1 9171   2.553   4.781   2.329
 3049SOL    HW2 9172   2.651   4.723   2.212
 3050SOL     OW 9173   2.272   4.537   3.113
 3050SOL    HW1 9174   2.358   4.549   3.163
 3050SOL    HW2 9175   2.230   4.450   3.140
 3051SOL     OW 9176   3.136   4.110   3.124
 3051SOL    HW1 9177   3.157   4.184   3.188
 3051SOL    HW2 9178   3.047   4.127   3.081
 3052SOL     OW 9179   2.229   4.824   2.363
 3052SOL    HW1 9180   2.222   4.907   2.307
 3052SOL    HW2 9181   2.233   4.744   2.303
 3053SOL     OW 9182   2.428   4.261   2.727
 3053SOL    HW1 9183   2.440   4.327   2.653
 3053SOL    HW2 9184   2.474   4.295   2.810
 3054SOL     OW 9185   3.114   5.072   2.250
 3054SOL    HW1 9186   3.164   5.149   2.290
 3054SOL    HW2 9187   3.019   5.074   2.282
 3055SOL     OW 9188   3.134   5.169   3.004
 3055SOL    HW1 9189   3.181   5.182   3.091
 3055SOL    HW2 9190   3.068   5.095   3.013
 3056SOL     OW 9191   3.444   4.363   2.334
 3056SOL    HW1 9192   3.413   4.424   2.407
 3056SOL    HW2 9193   3.494   4.415   2.265
 3057SOL     OW 9194   2.264   4.475   3.460
 3057SOL    HW1 9195   2.332   4.530   3.413
 3057SOL    HW2 9196   2.304   4.387   3.487
 3058SOL     OW 9197   3.449   4.503   3.532
 3058SOL    HW1 9198   3.357   4.541   3.527
 3058SOL    HW2 9199   3.509   4.550   3.467
 3059SOL     OW 9200   2.875   3.829   3.632
 3059SOL    HW1 9201   2.881   3.914   3.580
 3059SOL    HW2 9202   2.907   3.753   3.575
 3060SOL     OW 9203   2.366   3.774   3.602
 3060SOL    HW1 9204   2.324   3.717   3.532
 3060SOL    HW2 9205   2.300   3.843   3.634
 3061SOL     OW 9206   2.435   4.594   2.891
 3061SOL    HW1 9207   2.479   4.683   2.882
 3061SOL    HW2 9208   2.372   4.594   2.968
 3062SOL     OW 9209   3.222   4.586   2.907
 3062SOL    HW1 9210   3.147   4.586   2.841
 3062SOL    HW2 9211   3.259   4.494   2.916
 3063SOL     OW 9212   3.071   4.249   2.137
 3063SOL    HW1 9213   3.084   4.165   2.191
 3063SOL    HW2 9214   3.042   4.323   2.197
 3064SOL     OW 9215   2.169   3.937   3.093
 3064SOL    HW1 9216   2.146   3.974   3.183
 3064SOL    HW2 9217   2.139   3.842   3.087
 3065SOL     OW 9218   1.899   5.034   3.144
 3065SOL    HW1 9219   1.952   4.985   3.212
 3065SOL    HW2 9220   1.921   5.132   3.149
 3066SOL     OW 9221   2.594   4.358   2.926
 3066SOL    HW1 9222   2.653   4.332   2.850
 3066SOL    HW2 9223   2.566   4.454   2.915
 3067SOL     OW 9224   3.590   4.659   3.716
 3067SOL    HW1 9225   3.544   4.652   3.627
 3067SOL    HW2 9226   3.528   4.703   3.782
 3068SOL     OW 9227   2.169   3.787   2.480
 3068SOL    HW1 9228   2.158   3.881   2.513
 3068SOL    HW2 9229   2.164   3.724   2.557
 3069SOL     OW 9230   3.484   4.091   2.236
 3069SOL    HW1 9231   3.486   4.015   2.300
 3069SOL    HW2 9232   3.436   4.168   2.276
 3070SOL     OW 9233   2.885   4.490   2.828
 3070SOL    HW1 9234   2.900   4.511   2.924
 3070SOL    HW2 9235   2.855   4.395   2.819
 3071SOL     OW 9236   3.721   5.242   3.467
 3071SOL    HW1 9237   3.735   5.269   3.372
 3071SOL    HW2 9238   3.804   5.264   3.520
 3072SOL     OW 9239   2.212   4.622   3.666
 3072SOL    HW1 9240   2.288   4.666   3.714
 3072SOL    HW2 9241   2.247   4.575   3.584
 3073SOL     OW 9242   3.402   3.998   1.987
 3073SOL    HW1 9243   3.341   3.923   2.010
 3073SOL    HW2 9244   3.424   4.050   2.070
 3074SOL     OW 9245   3.165   4.562   1.904
 3074SOL    HW1 9246   3.199   4.469   1.919
 3074SOL    HW2 9247   3.183   4.589   1.809
 3075SOL     OW 9248   2.181   4.534   2.811
 3075SOL    HW1 9249   2.274   4.570   2.816
 3075SOL    HW2 9250   2.175   4.449   2.863
 3076SOL     OW 9251   2.201   4.233   2.868
 3076SOL    HW1 9252   2.149   4.150   2.851
 3076SOL    HW2 9253   2.278   4.238   2.804
 3077SOL     OW 9254   3.000   4.104   3.540
 3077SOL    HW1 9255   2.955   4.167   3.604
 3077SOL    HW2 9256   3.093   4.135   3.523
 3078SOL     OW 9257   3.022   3.931   3.339
 3078SOL    HW1 9258   3.022   3.995   3.416
 3078SOL    HW2 9259   3.050   3.979   3.256
 3079SOL     OW 9260   1.870   5.050   2.062
 3079SOL    HW1 9261   1.777   5.071   2.031
 3079SOL    HW2 9262   1.880   4.951   2.075
 3080SOL     OW 9263   2.864   4.520   3.100
 3080SOL    HW1 9264   2.905   4.488   3.186
 3080SOL    HW2 9265   2.768   4.493   3.097
 3081SOL     OW 9266   1.902   4.268   2.976
 3081SOL    HW1 9267   1.987   4.235   2.935
 3081SOL    HW2 9268   1.915   4.283   3.074
 3082SOL     OW 9269   2.051   4.244   3.584
 3082SOL    HW1 9270   2.110   4.204   3.514
 3082SOL    HW2 9271   1.993   4.315   3.543
 3083SOL     OW 9272   3.231   4.674   3.522
 3083SOL    HW1 9273   3.270   4.763   3.542
 3083SOL    HW2 9274   3.241   4.654   3.425
 3084SOL     OW 9275   2.677   4.296   2.187
 3084SOL    HW1 9276   2.684   4.207   2.141
 3084SOL    HW2 9277   2.583   4.330   2.179
 3085SOL     OW 9278   3.519   4.328   3.068
 3085SOL    HW1 9279   3.481   4.259   3.130
 3085SOL    HW2 9280   3.601   4.292   3.024
 3086SOL     OW 9281   2.533   4.188   3.131
 3086SOL    HW1 9282   2.499   4.099   3.101
 3086SOL    HW2 9283   2.559   4.242   3.051
 3087SOL     OW 9284   2.335   4.224   2.053
 3087SOL    HW1 9285   2.396   4.304   2.057
 3087SOL    HW2 9286   2.240   4.255   2.060
 3088SOL     OW 9287   2.021   4.861   3.328
 3088SOL    HW1 9288   2.043   4.800   3.404
 3088SOL    HW2 9289   2.031   4.812   3.242
 3089SOL     OW 9290   3.209   4.783   3.096
 3089SOL    HW1 9291   3.233   4.720   3.022
 3089SOL    HW2 9292   3.119   4.823   3.078
 3090SOL     OW 9293   3.164   4.579   2.171
 3090SOL    HW1 9294   3.078   4.548   2.213
 3090SOL    HW2 9295   3.160   4.565   2.072
 3091SOL     OW 9296   1.945   4.982   2.884
 3091SOL    HW1 9297   1.940   4.981   2.984
 3091SOL    HW2 9298   1.862   4.941   2.846
 3092SOL     OW 9299   3.588   3.859   2.385
 3092SOL    HW1 9300   3.661   3.842   2.318
 3092SOL    HW2 9301   3.557   3.772   2.423
 3093SOL     OW 9302   3.142   4.651   2.534
 3093SOL    HW1 9303   3.202   4.570   2.536
 3093SOL    HW2 9304   3.182   4.720   2.474
 3094SOL     OW 9305   2.692   4.997   3.284
 3094SOL    HW1 9306   2.687   5.030   3.379
 3094SOL    HW2 9307   2.606   5.016   3.238
 3095SOL     OW 9308   3.703   3.899   2.825
 3095SOL    HW1 9309   3.742   3.814   2.789
 3095SOL    HW2 9310   3.605   3.901   2.806
 3096SOL     OW 9311   2.125   4.050   2.582
 3096SOL    HW1 9312   2.046   4.101   2.548
 3096SOL    HW2 9313   2.116   4.035   2.680
 3097SOL     OW 9314   2.684   4.726   3.234
 3097SOL    HW1 9315   2.724   4.725   3.142
 3097SOL    HW2 9316   2.694   4.818   3.274
 3098SOL     OW 9317   2.778   4.634   2.153
 3098SOL    HW1 9318   2.841   4.672   2.085
 3098SOL    HW2 9319   2.818   4.551   2.192
 3099SOL     OW 9320   2.234   5.012   3.352
 3099SOL    HW1 9321   2.221   5.105   3.318
 3099SOL    HW2 9322   2.150   4.960   3.339
 3100SOL     OW 9323   3.476   5.016   3.151
 3100SOL    HW1 9324   3.536   5.019   3.231
 3100SOL    HW2 9325   3.401   5.080   3.164
 3101SOL     OW 9326   2.901   4.822   2.558
 3101SOL    HW1 9327   2.831   4.775   2.612
 3101SOL    HW2 9328   2.960   4.754   2.515
 3102SOL     OW 9329   2.876   3.960   2.833
 3102SOL    HW1 9330   2.868   3.924   2.740
 3102SOL    HW2 9331   2.874   3.884   2.898
 3103SOL     OW 9332   3.571   4.109   3.243
 3103SOL    HW1 9333   3.644   4.178   3.247
 3103SOL    HW2 9334   3.599   4.034   3.184
 3104SOL     OW 9335   1.967   4.737   3.588
 3104SOL    HW1 9336   1.890   4.704   3.642
 3104SOL    HW2 9337   2.052   4.707   3.630
 3105SOL     OW 9338   2.534   3.927   3.351
 3105SOL    HW1 9339   2.624   3.911   3.311
 3105SOL    HW2 9340   2.542   3.932   3.450
 3106SOL     OW 9341   1.937   4.069   1.895
 3106SOL    HW1 9342   1.845   4.041   1.866
 3106SOL    HW2 9343   1.968   4.146   1.839
 3107SOL     OW 9344   3.302   4.580   3.260
 3107SOL    HW1 9345   3.245   4.632   3.197
 3107SOL    HW2 9346   3.398   4.592   3.236
 3108SOL     OW 9347   1.934   3.890   2.180
 3108SOL    HW1 9348   1.917   3.973   2.126
 3108SOL    HW2 9349   2.024   3.853   2.158
 3109SOL     OW 9350   2.475   4.566   3.293
 3109SOL    HW1 9351   2.531   4.647   3.276
 3109SOL    HW2 9352   2.534   4.486   3.296
 3110SOL     OW 9353   2.578   4.289   3.570
 3110SOL    HW1 9354   2.597   4.354   3.644
 3110SOL    HW2 9355   2.638   4.209   3.579
 3111SOL     OW 9356   3.312   4.944   3.495
 3111SOL    HW1 9357   3.303   4.934   3.594
 3111SOL    HW2 9358   3.408   4.937   3.469
 3112SOL     OW 9359   3.536   4.607   3.116
 3112SOL    HW1 9360   3.509   4.518   3.079
 3112SOL    HW2 9361   3.537   4.675   3.043
 3113SOL     OW 9362   3.087   4.049   2.311
 3113SOL    HW1 9363   3.152   3.975   2.300
 3113SOL    HW2 9364   3.107   4.099   2.395
 3114SOL     OW 9365   2.456   4.469   2.514
 3114SOL    HW1 9366   2.506   4.554   2.495
 3114SOL    HW2 9367   2.368   4.471   2.466
 3115SOL     OW 9368   3.639   4.066   3.504
 3115SOL    HW1 9369   3.622   4.097   3.410
 3115SOL    HW2 9370   3.555   4.029   3.542
 3116SOL     OW 9371   3.592   4.658   3.379
 3116SOL    HW1 9372   3.630   4.749   3.394
 3116SOL    HW2 9373   3.584   4.641   3.280
 3117SOL     OW 9374   2.721   5.098   1.878
 3117SOL    HW1 9375   2.675   5.113   1.966
 3117SOL    HW2 9376   2.765   5.183   1.848
 3118SOL     OW 9377   2.721   4.680   2.723
 3118SOL    HW1 9378   2.775   4.611   2.771
 3118SOL    HW2 9379   2.689   4.749   2.789
 3119SOL     OW 9380   2.945   4.708   1.949
 3119SOL    HW1 9381   2.922   4.761   1.867
 3119SOL    HW2 9382   3.026   4.652   1.930
 3120SOL     OW 9383   2.083   5.038   3.706
 3120SOL    HW1 9384   2.018   4.965   3.685
 3120SOL    HW2 9385   2.087   5.052   3.804
 3121SOL     OW 9386   1.941   4.964   2.515
 3121SOL    HW1 9387   1.940   4.917   2.603
 3121SOL    HW2 9388   2.023   4.936   2.464
 3122SOL     OW 9389   2.534   5.115   3.486
 3122SOL    HW1 9390   2.456   5.065   3.524
 3122SOL    HW2 9391   2.531   5.210   3.517
 3123SOL     OW 9392   3.686   3.916   3.089
 3123SOL    HW1 9393   3.682   3.826   3.133
 3123SOL    HW2 9394   3.689   3.905   2.990
 3124SOL     OW 9395   2.290   4.148   2.382
 3124SOL    HW1 9396   2.320   4.076   2.320
 3124SOL    HW2 9397   2.251   4.108   2.465
 3125SOL     OW 9398   3.567   5.211   2.966
 3125SOL    HW1 9399   3.474   5.186   2.939
 3125SOL    HW2 9400   3.593   5.161   3.048
 3126SOL     OW 9401   2.179   4.271   3.142
 3126SOL    HW1 9402   2.217   4.212   3.214
 3126SOL    HW2 9403   2.219   4.245   3.054
 3127SOL     OW 9404   3.286   3.938   2.974
 3127SOL    HW1 9405   3.338   3.873   3.029
 3127SOL    HW2 9406   3.237   4.001   3.035
 3128SOL     OW 9407   2.863   3.758   3.016
 3128SOL    HW1 9408   2.800   3.686   2.985
 3128SOL    HW2 9409   2.956   3.722   3.016
 3129SOL     OW 9410   2.632   5.054   2.163
 3129SOL    HW1 9411   2.586   4.967   2.180
 3129SOL    HW2 9412   2.723   5.051   2.204
 3130SOL     OW 9413   3.214   3.776   2.030
 3130SOL    HW1 9414   3.249   3.735   1.946
 3130SOL    HW2 9415   3.124   3.738   2.050
 3131SOL     OW 9416   3.162   4.177   2.553
 3131SOL    HW1 9417   3.103   4.257   2.557
 3131SOL    HW2 9418   3.177   4.142   2.646
 3132SOL     OW 9419   3.455   3.945   2.744
 3132SOL    HW1 9420   3.371   3.944   2.798
 3132SOL    HW2 9421   3.457   4.028   2.688
 3133SOL     OW 9422   1.901   4.801   2.162
 3133SOL    HW1 9423   2.000   4.790   2.153
 3133SOL    HW2 9424   1.861   4.715   2.194
 3134SOL     OW 9425   2.092   4.352   3.837
 3134SOL    HW1 9426   1.999   4.350   3.874
 3134SOL    HW2 9427   2.093   4.313   3.745
 3135SOL     OW 9428   2.087   3.999   4.720
 3135SOL    HW1 9429   2.122   3.982   4.812
 3135SOL    HW2 9430   1.999   3.954   4.708
 3136SOL     OW 9431   1.881   4.092   4.371
 3136SOL    HW1 9432   1.799   4.135   4.410
 3136SOL    HW2 9433   1.853   4.019   4.308
 3137SOL     OW 9434   2.431   4.999   4.889
 3137SOL    HW1 9435   2.338   4.992   4.852
 3137SOL    HW2 9436   2.442   5.088   4.933
 3138SOL     OW 9437   3.417   5.235   4.427
 3138SOL    HW1 9438   3.360   5.219   4.508
 3138SOL    HW2 9439   3.358   5.245   4.347
 3139SOL     OW 9440   2.997   4.427   4.441
 3139SOL    HW1 9441   3.054   4.505   4.416
 3139SOL    HW2 9442   2.937   4.453   4.517
 3140SOL     OW 9443   3.617   4.331   3.955
 3140SOL    HW1 9444   3.605   4.318   3.856
 3140SOL    HW2 9445   3.587   4.250   4.004
 3141SOL     OW 9446   2.630   4.868   4.747
 3141SOL    HW1 9447   2.552   4.885   4.807
 3141SOL    HW2 9448   2.664   4.955   4.711
 3142SOL     OW 9449   2.547   4.736   4.389
 3142SOL    HW1 9450   2.616   4.720   4.459
 3142SOL    HW2 9451   2.474   4.793   4.427
 3143SOL     OW 9452   2.197   5.159   4.785
 3143SOL    HW1 9453   2.119   5.128   4.732
 3143SOL    HW2 9454   2.255   5.217   4.728
 3144SOL     OW 9455   2.300   4.116   5.223
 3144SOL    HW1 9456   2.382   4.060   5.232
 3144SOL    HW2 9457   2.219   4.058   5.227
 3145SOL     OW 9458   3.465   4.171   4.461
 3145SOL    HW1 9459   3.391   4.217   4.411
 3145SOL    HW2 9460   3.516   4.239   4.514
 3146SOL     OW 9461   2.093   5.437   4.207
 3146SOL    HW1 9462   2.127   5.514   4.261
 3146SOL    HW2 9463   2.137   5.437   4.117
 3147SOL     OW 9464   2.102   4.815   4.610
 3147SOL    HW1 9465   2.116   4.731   4.662
 3147SOL    HW2 9466   2.047   4.879   4.665
 3148SOL     OW 9467   2.468   4.688   3.847
 3148SOL    HW1 9468   2.475   4.772   3.793
 3148SOL    HW2 9469   2.514   4.701   3.935
 3149SOL     OW 9470   1.984   4.367   4.287
 3149SOL    HW1 9471   1.939   4.279   4.304
 3149SOL    HW2 9472   1.983   4.421   4.371
 3150SOL     OW 9473   3.551   4.646   4.336
 3150SOL    HW1 9474   3.646   4.617   4.344
 3150SOL    HW2 9475   3.543   4.711   4.261
 3151SOL     OW 9476   3.503   4.832   4.156
 3151SOL    HW1 9477   3.589   4.834   4.104
 3151SOL    HW2 9478   3.517   4.879   4.244
 3152SOL     OW 9479   2.475   5.089   4.450
 3152SOL    HW1 9480   2.426   5.002   4.459
 3152SOL    HW2 9481   2.452   5.132   4.363
 3153SOL     OW 9482   2.671   3.728   4.226
 3153SOL    HW1 9483   2.711   3.819   4.217
 3153SOL    HW2 9484   2.571   3.736   4.232
 3154SOL     OW 9485   2.059   4.700   4.988
 3154SOL    HW1 9486   2.148   4.655   4.974
 3154SOL    HW2 9487   1.986   4.635   4.969
 3155SOL     OW 9488   3.387   4.723   3.914
 3155SOL    HW1 9489   3.324   4.647   3.927
 3155SOL    HW2 9490   3.435   4.741   4.000
 3156SOL     OW 9491   3.328   5.141   4.677
 3156SOL    HW1 9492   3.269   5.147   4.757
 3156SOL    HW2 9493   3.313   5.053   4.631
 3157SOL     OW 9494   2.460   4.453   3.994
 3157SOL    HW1 9495   2.484   4.522   3.926
 3157SOL    HW2 9496   2.382   4.486   4.048
 3158SOL     OW 9497   3.143   4.069   4.668
 3158SOL    HW1 9498   3.057   4.019   4.655
 3158SOL    HW2 9499   3.205   4.015   4.724
 3159SOL     OW 9500   2.669   4.329   5.189
 3159SOL    HW1 9501   2.622   4.326   5.278
 3159SOL    HW2 9502   2.618   4.274   5.123
 3160SOL     OW 9503   2.853   4.134   4.966
 3160SOL    HW1 9504   2.776   4.168   5.020
 3160SOL    HW2 9505   2.819   4.083   4.887
 3161SOL     OW 9506   2.903   4.425   4.153
 3161SOL    HW1 9507   2.929   4.421   4.249
 3161SOL    HW2 9508   2.818   4.374   4.139
 3162SOL     OW 9509   1.938   4.535   4.513
 3162SOL    HW1 9510   2.037   4.523   4.522
 3162SOL    HW2 9511   1.914   4.630   4.534
 3163SOL     OW 9512   2.727   4.072   3.919
 3163SOL    HW1 9513   2.786   4.135   3.870
 3163SOL    HW2 9514   2.746   3.978   3.890
 3164SOL     OW 9515   3.224   4.868   4.269
 3164SOL    HW1 9516   3.307   4.839   4.221
 3164SOL    HW2 9517   3.175   4.935   4.213
 3165SOL     OW 9518   2.412   3.920   4.609
 3165SOL    HW1 9519   2.407   3.915   4.709
 3165SOL    HW2 9520   2.414   4.016   4.580
 3166SOL     OW 9521   3.657   4.790   4.597
 3166SOL    HW1 9522   3.595   4.775   4.521
 3166SOL    HW2 9523   3.605   4.801   4.682
 3167SOL     OW 9524   2.183   4.667   3.966
 3167SOL    HW1 9525   2.265   4.706   3.924
 3167SOL    HW2 9526   2.156   4.585   3.917
 3168SOL     OW 9527   3.320   4.459   4.452
 3168SOL    HW1 9528   3.315   4.394   4.527
 3168SOL    HW2 9529   3.400   4.518   4.465
 3169SOL     OW 9530   2.973   5.500   3.961
 3169SOL    HW1 9531   2.913   5.438   4.011
 3169SOL    HW2 9532   3.004   5.456   3.876
 3170SOL     OW 9533   3.494   5.101   3.805
 3170SOL    HW1 9534   3.462   5.195   3.795
 3170SOL    HW2 9535   3.418   5.038   3.793
 3171SOL     OW 9536   3.262   3.831   4.150
 3171SOL    HW1 9537   3.238   3.794   4.060
 3171SOL    HW2 9538   3.361   3.847   4.154
 3172SOL     OW 9539   2.244   4.424   4.204
 3172SOL    HW1 9540   2.289   4.334   4.201
 3172SOL    HW2 9541   2.150   4.413   4.237
 3173SOL     OW 9542   2.476   3.846   3.841
 3173SOL    HW1 9543   2.574   3.824   3.848
 3173SOL    HW2 9544   2.445   3.829   3.748
 3174SOL     OW 9545   2.784   4.227   4.623
 3174SOL    HW1 9546   2.759   4.218   4.527
 3174SOL    HW2 9547   2.832   4.145   4.654
 3175SOL     OW 9548   2.401   3.788   4.236
 3175SOL    HW1 9549   2.320   3.789   4.294
 3175SOL    HW2 9550   2.404   3.871   4.181
 3176SOL     OW 9551   3.296   4.912   3.765
 3176SOL    HW1 9552   3.328   4.836   3.822
 3176SOL    HW2 9553   3.204   4.939   3.795
 3177SOL     OW 9554   2.159   3.759   3.895
 3177SOL    HW1 9555   2.208   3.843   3.874
 3177SOL    HW2 9556   2.221   3.694   3.940
 3178SOL     OW 9557   2.797   3.960   4.204
 3178SOL    HW1 9558   2.749   4.001   4.126
 3178SOL    HW2 9559   2.896   3.958   4.185
 3179SOL     OW 9560   3.089   5.294   4.517
 3179SOL    HW1 9561   3.110   5.368   4.452
 3179SOL    HW2 9562   3.157   5.294   4.590
 3180SOL     OW 9563   2.321   4.876   4.465
 3180SOL    HW1 9564   2.250   4.849   4.530
 3180SOL    HW2 9565   2.295   4.848   4.372
 3181SOL     OW 9566   2.894   4.273   3.740
 3181SOL    HW1 9567   2.853   4.355   3.701
 3181SOL    HW2 9568   2.958   4.299   3.813
 3182SOL     OW 9569   2.423   3.946   4.871
 3182SOL    HW1 9570   2.461   3.862   4.908
 3182SOL    HW2 9571   2.335   3.965   4.915
 3183SOL     OW 9572   2.728   4.178   4.366
 3183SOL    HW1 9573   2.696   4.250   4.304
 3183SOL    HW2 9574   2.752   4.097   4.313
 3184SOL     OW 9575   2.879   3.763   4.477
 3184SOL    HW1 9576   2.807   3.768   4.408
 3184SOL    HW2 9577   2.855   3.694   4.546
 3185SOL     OW 9578   3.291   4.897   4.591
 3185SOL    HW1 9579   3.236   4.813   4.584
 3185SOL    HW2 9580   3.317   4.926   4.499
 3186SOL     OW 9581   3.328   4.314   4.716
 3186SOL    HW1 9582   3.298   4.219   4.723
 3186SOL    HW2 9583   3.401   4.330   4.782
 3187SOL     OW 9584   3.719   4.557   4.101
 3187SOL    HW1 9585   3.761   4.493   4.165
 3187SOL    HW2 9586   3.681   4.506   4.023
 3188SOL     OW 9587   3.526   5.004   4.381
 3188SOL    HW1 9588   3.625   5.012   4.395
 3188SOL    HW2 9589   3.481   5.088   4.412
 3189SOL     OW 9590   3.252   4.299   3.802
 3189SOL    HW1 9591   3.198   4.278   3.883
 3189SOL    HW2 9592   3.343   4.258   3.811
 3190SOL     OW 9593   2.389   3.980   4.052
 3190SOL    HW1 9594   2.416   3.921   3.977
 3190SOL    HW2 9595   2.389   4.075   4.021
 3191SOL     OW 9596   3.616   4.947   5.312
 3191SOL    HW1 9597   3.707   4.908   5.299
 3191SOL    HW2 9598   3.624   5.043   5.336
 3192SOL     OW 9599   2.926   5.071   5.064
 3192SOL    HW1 9600   2.846   5.048   5.119
 3192SOL    HW2 9601   3.009   5.045   5.113
 3193SOL     OW 9602   2.973   4.919   4.824
 3193SOL    HW1 9603   2.933   4.963   4.905
 3193SOL    HW2 9604   2.932   4.956   4.741
 3194SOL     OW 9605   3.500   4.823   4.803
 3194SOL    HW1 9606   3.505   4.904   4.862
 3194SOL    HW2 9607   3.414   4.825   4.752
 3195SOL     OW 9608   2.567   4.774   4.092
 3195SOL    HW1 9609   2.553   4.781   4.191
 3195SOL    HW2 9610   2.651   4.723   4.074
 3196SOL     OW 9611   2.272   4.537   4.975
 3196SOL    HW1 9612   2.358   4.549   5.025
 3196SOL    HW2 9613   2.230   4.450   5.002
 3197SOL     OW 9614   3.136   4.110   4.986
 3197SOL    HW1 9615   3.157   4.184   5.050
 3197SOL    HW2 9616   3.047   4.127   4.943
 3198SOL     OW 9617   2.229   4.824   4.225
 3198SOL    HW1 9618   2.222   4.907   4.169
 3198SOL    HW2 9619   2.233   4.744   4.165
 3199SOL     OW 9620   2.428   4.261   4.589
 3199SOL    HW1 9621   2.440   4.327   4.515
 3199SOL    HW2 9622   2.474   4.295   4.672
 3200SOL     OW 9623   3.114   5.072   4.112
 3200SOL    HW1 9624   3.164   5.149   4.152
 3200SOL    HW2 9625   3.019   5.074   4.144
 3201SOL     OW 9626   3.134   5.169   4.866
 3201SOL    HW1 9627   3.181   5.182   4.953
 3201SOL    HW2 9628   3.068   5.095   4.875
 3202SOL     OW 9629   3.444   4.363   4.196
 3202SOL    HW1 9630   3.413   4.424   4.269
 3202SOL    HW2 9631   3.494   4.415   4.127
 3203SOL     OW 9632   2.366   3.774   5.464
 3203SOL    HW1 9633   2.324   3.717   5.394
 3203SOL    HW2 9634   2.300   3.843   5.496
 3204SOL     OW 9635   2.435   4.594   4.753
 3204SOL    HW1 9636   2.479   4.683   4.744
 3204SOL    HW2 9637   2.372   4.594   4.830
 3205SOL     OW 9638   3.222   4.586   4.769
 3205SOL    HW1 9639   3.147   4.586   4.703
 3205SOL    HW2 9640   3.259   4.494   4.778
 3206SOL     OW 9641   3.071   4.249   3.999
 3206SOL    HW1 9642   3.084   4.165   4.053
 3206SOL    HW2 9643   3.042   4.323   4.059
 3207SOL     OW 9644   2.169   3.937   4.955
 3207SOL    HW1 9645   2.146   3.974   5.045
 3207SOL    HW2 9646   2.139   3.842   4.949
 3208SOL     OW 9647   1.899   5.034   5.006
 3208SOL    HW1 9648   1.952   4.985   5.074
 3208SOL    HW2 9649   1.921   5.132   5.011
 3209SOL     OW 9650   2.594   4.358   4.788
 3209SOL    HW1 9651   2.653   4.332   4.712
 3209SOL    HW2 9652   2.566   4.454   4.777
 3210SOL     OW 9653   2.169   3.787   4.342
 3210SOL    HW1 9654   2.158   3.881   4.375
 3210SOL    HW2 9655   2.164   3.724   4.419
 3211SOL     OW 9656   3.484   4.091   4.098
 3211SOL    HW1 9657   3.486   4.015   4.162
 3211SOL    HW2 9658   3.436   4.168   4.138
 3212SOL     OW 9659   2.885   4.490   4.690
 3212SOL    HW1 9660   2.900   4.511   4.786
 3212SOL    HW2 9661   2.855   4.395   4.681
 3213SOL     OW 9662   3.402   3.998   3.849
 3213SOL    HW1 9663   3.341   3.923   3.872
 3213SOL    HW2 9664   3.424   4.050   3.932
 3214SOL     OW 9665   3.165   4.562   3.766
 3214SOL    HW1 9666   3.199   4.469   3.781
 3214SOL    HW2 9667   3.183   4.589   3.671
 3215SOL     OW 9668   2.181   4.534   4.673
 3215SOL    HW1 9669   2.274   4.570   4.678
 3215SOL    HW2 9670   2.175   4.449   4.725
 3216SOL     OW 9671   2.201   4.233   4.730
 3216SOL    HW1 9672   2.149   4.150   4.713
 3216SOL    HW2 9673   2.278   4.238   4.666
 3217SOL     OW 9674   3.022   3.931   5.201
 3217SOL    HW1 9675   3.022   3.995   5.278
 3217SOL    HW2 9676   3.050   3.979   5.118
 3218SOL     OW 9677   1.870   5.050   3.924
 3218SOL    HW1 9678   1.777   5.071   3.893
 3218SOL    HW2 9679   1.880   4.951   3.937
 3219SOL     OW 9680   2.864   4.520   4.962
 3219SOL    HW1 9681   2.905   4.488   5.048
 3219SOL    HW2 9682   2.768   4.493   4.959
 3220SOL     OW 9683   1.902   4.268   4.838
 3220SOL    HW1 9684   1.987   4.235   4.797
 3220SOL    HW2 9685   1.915   4.283   4.936
 3221SOL     OW 9686   2.677   4.296   4.049
 3221SOL    HW1 9687   2.684   4.207   4.003
 3221SOL    HW2 9688   2.583   4.330   4.041
 3222SOL     OW 9689   3.519   4.328   4.930
 3222SOL    HW1 9690   3.481   4.259   4.992
 3222SOL    HW2 9691   3.601   4.292   4.886
 3223SOL     OW 9692   2.533   4.188   4.993
 3223SOL    HW1 9693   2.499   4.099   4.963
 3223SOL    HW2 9694   2.559   4.242   4.913
 3224SOL     OW 9695   2.335   4.224   3.915
 3224SOL    HW1 9696   2.396   4.304   3.919
 3224SOL    HW2 9697   2.240   4.255   3.922
 3225SOL     OW 9698   2.021   4.861   5.190
 3225SOL    HW1 9699   2.043   4.800   5.266
 3225SOL    HW2 9700   2.031   4.812   5.104
 3226SOL     OW 9701   3.209   4.783   4.958
 3226SOL    HW1 9702   3.233   4.720   4.884
 3226SOL    HW2 9703   3.119   4.823   4.940
 3227SOL     OW 9704   3.164   4.579   4.033
 3227SOL    HW1 9705   3.078   4.548   4.075
 3227SOL    HW2 9706   3.160   4.565   3.934
 3228SOL     OW 9707   1.945   4.982   4.746
 3228SOL    HW1 9708   1.940   4.981   4.846
 3228SOL    HW2 9709   1.862   4.941   4.708
 3229SOL     OW 9710   3.588   3.859   4.247
 3229SOL    HW1 9711   3.661   3.842   4.180
 3229SOL    HW2 9712   3.557   3.772   4.285
 3230SOL     OW 9713   3.142   4.651   4.396
 3230SOL    HW1 9714   3.202   4.570   4.398
 3230SOL    HW2 9715   3.182   4.720   4.336
 3231SOL     OW 9716   2.692   4.997   5.146
 3231SOL    HW1 9717   2.687   5.030   5.241
 3231SOL    HW2 9718   2.606   5.016   5.100
 3232SOL     OW 9719   3.703   3.899   4.687
 3232SOL    HW1 9720   3.742   3.814   4.651
 3232SOL    HW2 9721   3.605   3.901   4.668
 3233SOL     OW 9722   2.125   4.050   4.444
 3233SOL    HW1 9723   2.046   4.101   4.410
 3233SOL    HW2 9724   2.116   4.035   4.542
 3234SOL     OW 9725   2.684   4.726   5.096
 3234SOL    HW1 9726   2.724   4.725   5.004
 3234SOL    HW2 9727   2.694   4.818   5.136
 3235SOL     OW 9728   2.778   4.634   4.015
 3235SOL    HW1 9729   2.841   4.672   3.947
 3235SOL    HW2 9730   2.818   4.551   4.054
 3236SOL     OW 9731   2.234   5.012   5.214
 3236SOL    HW1 9732   2.221   5.105   5.180
 3236SOL    HW2 9733   2.150   4.960   5.201
 3237SOL     OW 9734   3.476   5.016   5.013
 3237SOL    HW1 9735   3.536   5.019   5.093
 3237SOL    HW2 9736   3.401   5.080   5.026
 3238SOL     OW 9737   2.901   4.822   4.420
 3238SOL    HW1 9738   2.831   4.775   4.474
 3238SOL    HW2 9739   2.960   4.754   4.377
 3239SOL     OW 9740   2.876   3.960   4.695
 3239SOL    HW1 9741   2.868   3.924   4.602
 3239SOL    HW2 9742   2.874   3.884   4.760
 3240SOL     OW 9743   3.571   4.109   5.105
 3240SOL    HW1 9744   3.644   4.178   5.109
 3240SOL    HW2 9745   3.599   4.034   5.046
 3241SOL     OW 9746   2.534   3.927   5.213
 3241SOL    HW1 9747   2.624   3.911   5.173
 3241SOL    HW2 9748   2.542   3.932   5.312
 3242SOL     OW 9749   1.937   4.069   3.757
 3242SOL    HW1 9750   1.845   4.041   3.728
 3242SOL    HW2 9751   1.968   4.146   3.701
 3243SOL     OW 9752   1.934   3.890   4.042
 3243SOL    HW1 9753   1.917   3.973   3.988
 3243SOL    HW2 9754   2.024   3.853   4.020
 3244SOL     OW 9755   2.475   4.566   5.155
 3244SOL    HW1 9756   2.531   4.647   5.138
 3244SOL    HW2 9757   2.534   4.486   5.158
 3245SOL     OW 9758   3.536   4.607   4.978
 3245SOL    HW1 9759   3.509   4.518   4.941
 3245SOL    HW2 9760   3.537   4.675   4.905
 3246SOL     OW 9761   3.087   4.049   4.173
 3246SOL    HW1 9762   3.152   3.975   4.162
 3246SOL    HW2 9763   3.107   4.099   4.257
 3247SOL     OW 9764   2.456   4.469   4.376
 3247SOL    HW1 9765   2.506   4.554   4.357
 3247SOL    HW2 9766   2.368   4.471   4.328
 3248SOL     OW 9767   3.592   4.658   5.241
 3248SOL    HW1 9768   3.630   4.749   5.256
 3248SOL    HW2 9769   3.584   4.641   5.142
 3249SOL     OW 9770   2.721   5.098   3.740
 3249SOL    HW1 9771   2.675   5.113   3.828
 3249SOL    HW2 9772   2.765   5.183   3.710
 3250SOL     OW 9773   2.721   4.680   4.585
 3250SOL    HW1 9774   2.775   4.611   4.633
 3250SOL    HW2 9775   2.689   4.749   4.651
 3251SOL     OW 9776   2.945   4.708   3.811
 3251SOL    HW1 9777   2.922   4.761   3.729
 3251SOL    HW2 9778   3.026   4.652   3.792
 3252SOL     OW 9779   1.941   4.964   4.377
 3252SOL    HW1 9780   1.940   4.917   4.465
 3252SOL    HW2 9781   2.023   4.936   4.326
 3253SOL     OW 9782   3.686   3.916   4.951
 3253SOL    HW1 9783   3.682   3.826   4.995
 3253SOL    HW2 9784   3.689   3.905   4.852
 3254SOL     OW 9785   2.290   4.148   4.244
 3254SOL    HW1 9786   2.320   4.076   4.182
 3254SOL    HW2 9787   2.251   4.108   4.327
 3255SOL     OW 9788   3.567   5.211   4.828
 3255SOL    HW1 9789   3.474   5.186   4.801
 3255SOL    HW2 9790   3.593   5.161   4.910
 3256SOL     OW 9791   2.179   4.271   5.004
 3256SOL    HW1 9792   2.217   4.212   5.076
 3256SOL    HW2 9793   2.219   4.245   4.916
 3257SOL     OW 9794   3.286   3.938   4.836
 3257SOL    HW1 9795   3.338   3.873   4.891
 3257SOL    HW2 9796   3.237   4.001   4.897
 3258SOL     OW 9797   2.863   3.758   4.878
 3258SOL    HW1 9798   2.800   3.686   4.847
 3258SOL    HW2 9799   2.956   3.722   4.878
 3259SOL     OW 9800   2.632   5.054   4.025
 3259SOL    HW1 9801   2.586   4.967   4.042
 3259SOL    HW2 9802   2.723   5.051   4.066
 3260SOL     OW 9803   3.214   3.776   3.892
 3260SOL    HW1 9804   3.249   3.735   3.808
 3260SOL    HW2 9805   3.124   3.738   3.912
 3261SOL     OW 9806   3.162   4.177   4.415
 3261SOL    HW1 9807   3.103   4.257   4.419
 3261SOL    HW2 9808   3.177   4.142   4.508
 3262SOL     OW 9809   3.455   3.945   4.606
 3262SOL    HW1 9810   3.371   3.944   4.660
 3262SOL    HW2 9811   3.457   4.028   4.550
 3263SOL     OW 9812   1.901   4.801   4.024
 3263SOL    HW1 9813   2.000   4.790   4.015
 3263SOL    HW2 9814   1.861   4.715   4.056
 3264SOL     OW 9815   3.954   0.628   0.113
 3264SOL    HW1 9816   3.861   0.626   0.150
 3264SOL    HW2 9817   3.955   0.589   0.021
 3265SOL     OW 9818   3.949   0.275   0.996
 3265SOL    HW1 9819   3.984   0.258   1.088
 3265SOL    HW2 9820   3.861   0.230   0.984
 3266SOL     OW 9821   3.743   0.368   0.647
 3266SOL    HW1 9822   3.661   0.411   0.686
 3266SOL    HW2 9823   3.715   0.295   0.584
 3267SOL     OW 9824   4.293   1.275   1.165
 3267SOL    HW1 9825   4.200   1.268   1.128
 3267SOL    HW2 9826   4.304   1.364   1.209
 3268SOL     OW 9827   5.279   1.511   0.703
 3268SOL    HW1 9828   5.222   1.495   0.784
 3268SOL    HW2 9829   5.220   1.521   0.623
 3269SOL     OW 9830   4.859   0.703   0.717
 3269SOL    HW1 9831   4.916   0.781   0.692
 3269SOL    HW2 9832   4.799   0.729   0.793
 3270SOL     OW 9833   4.492   1.144   1.023
 3270SOL    HW1 9834   4.414   1.161   1.083
 3270SOL    HW2 9835   4.526   1.231   0.987
 3271SOL     OW 9836   4.574   0.798   1.823
 3271SOL    HW1 9837   4.570   0.874   1.888
 3271SOL    HW2 9838   4.596   0.834   1.732
 3272SOL     OW 9839   4.409   1.012   0.665
 3272SOL    HW1 9840   4.478   0.996   0.735
 3272SOL    HW2 9841   4.336   1.069   0.703
 3273SOL     OW 9842   4.410   1.161   1.803
 3273SOL    HW1 9843   4.470   1.240   1.817
 3273SOL    HW2 9844   4.324   1.192   1.762
 3274SOL     OW 9845   4.059   1.435   1.061
 3274SOL    HW1 9846   3.981   1.404   1.008
 3274SOL    HW2 9847   4.117   1.493   1.004
 3275SOL     OW 9848   4.162   0.392   1.499
 3275SOL    HW1 9849   4.244   0.336   1.508
 3275SOL    HW2 9850   4.081   0.334   1.503
 3276SOL     OW 9851   3.955   1.713   0.483
 3276SOL    HW1 9852   3.989   1.790   0.537
 3276SOL    HW2 9853   3.999   1.713   0.393
 3277SOL     OW 9854   4.851   1.341   1.690
 3277SOL    HW1 9855   4.898   1.341   1.778
 3277SOL    HW2 9856   4.803   1.254   1.679
 3278SOL     OW 9857   3.954   1.434   0.538
 3278SOL    HW1 9858   3.928   1.530   0.538
 3278SOL    HW2 9859   3.883   1.380   0.583
 3279SOL     OW 9860   3.964   1.091   0.886
 3279SOL    HW1 9861   3.978   1.007   0.938
 3279SOL    HW2 9862   3.909   1.155   0.941
 3280SOL     OW 9863   4.344   1.786   1.439
 3280SOL    HW1 9864   4.252   1.769   1.474
 3280SOL    HW2 9865   4.372   1.878   1.465
 3281SOL     OW 9866   4.330   0.964   0.123
 3281SOL    HW1 9867   4.337   1.048   0.069
 3281SOL    HW2 9868   4.376   0.977   0.211
 3282SOL     OW 9869   3.846   0.643   0.563
 3282SOL    HW1 9870   3.801   0.555   0.580
 3282SOL    HW2 9871   3.845   0.697   0.647
 3283SOL     OW 9872   3.751   1.596   0.117
 3283SOL    HW1 9873   3.732   1.500   0.138
 3283SOL    HW2 9874   3.718   1.654   0.192
 3284SOL     OW 9875   5.413   0.922   0.612
 3284SOL    HW1 9876   5.508   0.893   0.620
 3284SOL    HW2 9877   5.405   0.987   0.537
 3285SOL     OW 9878   3.837   0.737   1.597
 3285SOL    HW1 9879   3.925   0.724   1.642
 3285SOL    HW2 9880   3.824   0.834   1.575
 3286SOL     OW 9881   4.337   1.365   0.726
 3286SOL    HW1 9882   4.288   1.278   0.735
 3286SOL    HW2 9883   4.314   1.408   0.639
 3287SOL     OW 9884   5.017   1.228   1.423
 3287SOL    HW1 9885   5.054   1.155   1.365
 3287SOL    HW2 9886   5.069   1.233   1.508
 3288SOL     OW 9887   4.533   0.004   0.502
 3288SOL    HW1 9888   4.573   0.095   0.493
 3288SOL    HW2 9889   4.433   0.012   0.508
 3289SOL     OW 9890   3.921   0.976   1.264
 3289SOL    HW1 9891   4.010   0.931   1.250
 3289SOL    HW2 9892   3.848   0.911   1.245
 3290SOL     OW 9893   4.911   1.792   1.616
 3290SOL    HW1 9894   4.935   1.852   1.540
 3290SOL    HW2 9895   4.918   1.697   1.586
 3291SOL     OW 9896   4.041   0.251   1.801
 3291SOL    HW1 9897   4.112   0.322   1.807
 3291SOL    HW2 9898   3.953   0.290   1.829
 3292SOL     OW 9899   4.322   0.729   0.270
 3292SOL    HW1 9900   4.346   0.798   0.202
 3292SOL    HW2 9901   4.244   0.762   0.324
 3293SOL     OW 9902   5.005   0.345   0.944
 3293SOL    HW1 9903   4.919   0.295   0.931
 3293SOL    HW2 9904   5.067   0.291   1.000
 3294SOL     OW 9905   4.531   0.605   1.465
 3294SOL    HW1 9906   4.484   0.602   1.554
 3294SOL    HW2 9907   4.480   0.550   1.399
 3295SOL     OW 9908   5.118   0.469   1.674
 3295SOL    HW1 9909   5.098   0.512   1.762
 3295SOL    HW2 9910   5.196   0.407   1.683
 3296SOL     OW 9911   4.697   0.890   1.572
 3296SOL    HW1 9912   4.743   0.806   1.543
 3296SOL    HW2 9913   4.641   0.924   1.497
 3297SOL     OW 9914   4.715   0.410   1.242
 3297SOL    HW1 9915   4.638   0.444   1.296
 3297SOL    HW2 9916   4.681   0.359   1.163
 3298SOL     OW 9917   4.765   0.701   0.429
 3298SOL    HW1 9918   4.791   0.697   0.525
 3298SOL    HW2 9919   4.680   0.650   0.415
 3299SOL     OW 9920   3.800   0.811   0.789
 3299SOL    HW1 9921   3.899   0.799   0.798
 3299SOL    HW2 9922   3.776   0.906   0.810
 3300SOL     OW 9923   3.854   1.821   1.571
 3300SOL    HW1 9924   3.844   1.806   1.670
 3300SOL    HW2 9925   3.768   1.857   1.535
 3301SOL     OW 9926   4.589   0.348   0.195
 3301SOL    HW1 9927   4.648   0.411   0.146
 3301SOL    HW2 9928   4.608   0.254   0.166
 3302SOL     OW 9929   5.086   1.144   0.545
 3302SOL    HW1 9930   5.169   1.115   0.497
 3302SOL    HW2 9931   5.037   1.211   0.489
 3303SOL     OW 9932   4.274   0.196   0.885
 3303SOL    HW1 9933   4.269   0.191   0.985
 3303SOL    HW2 9934   4.276   0.292   0.856
 3304SOL     OW 9935   4.732   1.456   0.477
 3304SOL    HW1 9936   4.686   1.528   0.425
 3304SOL    HW2 9937   4.728   1.476   0.575
 3305SOL     OW 9938   4.075   1.801   0.853
 3305SOL    HW1 9939   4.125   1.715   0.859
 3305SOL    HW2 9940   4.140   1.878   0.850
 3306SOL     OW 9941   4.951   1.550   1.506
 3306SOL    HW1 9942   4.957   1.473   1.570
 3306SOL    HW2 9943   4.899   1.524   1.426
 3307SOL     OW 9944   4.045   0.943   0.242
 3307SOL    HW1 9945   4.127   0.982   0.200
 3307SOL    HW2 9946   4.018   0.861   0.193
 3308SOL     OW 9947   4.185   1.266   1.727
 3308SOL    HW1 9948   4.135   1.267   1.641
 3308SOL    HW2 9949   4.122   1.248   1.803
 3309SOL     OW 9950   4.835   1.776   0.237
 3309SOL    HW1 9951   4.775   1.714   0.287
 3309SOL    HW2 9952   4.866   1.732   0.152
 3310SOL     OW 9953   3.926   0.285   1.498
 3310SOL    HW1 9954   3.846   0.345   1.485
 3310SOL    HW2 9955   3.916   0.236   1.584
 3311SOL     OW 9956   5.356   1.377   0.081
 3311SOL    HW1 9957   5.324   1.471   0.071
 3311SOL    HW2 9958   5.280   1.314   0.069
 3312SOL     OW 9959   4.188   1.743   0.323
 3312SOL    HW1 9960   4.221   1.782   0.409
 3312SOL    HW2 9961   4.264   1.736   0.258
 3313SOL     OW 9962   3.973   1.785   1.241
 3313SOL    HW1 9963   4.030   1.720   1.291
 3313SOL    HW2 9964   3.957   1.752   1.148
 3314SOL     OW 9965   4.664   1.698   0.904
 3314SOL    HW1 9966   4.744   1.641   0.925
 3314SOL    HW2 9967   4.615   1.658   0.827
 3315SOL     OW 9968   4.106   0.700   0.480
 3315SOL    HW1 9969   4.151   0.610   0.477
 3315SOL    HW2 9970   4.012   0.689   0.513
 3316SOL     OW 9971   4.338   0.122   0.117
 3316SOL    HW1 9972   4.436   0.100   0.124
 3316SOL    HW2 9973   4.307   0.105   0.024
 3317SOL     OW 9974   4.505   0.264   1.749
 3317SOL    HW1 9975   4.572   0.203   1.792
 3317SOL    HW2 9976   4.432   0.283   1.814
 3318SOL     OW 9977   4.612   1.514   1.195
 3318SOL    HW1 9978   4.589   1.489   1.101
 3318SOL    HW2 9979   4.673   1.445   1.234
 3319SOL     OW 9980   5.075   0.590   1.433
 3319SOL    HW1 9981   5.103   0.547   1.518
 3319SOL    HW2 9982   5.100   0.686   1.434
 3320SOL     OW 9983   4.527   1.402   0.924
 3320SOL    HW1 9984   4.617   1.416   0.882
 3320SOL    HW2 9985   4.456   1.404   0.853
 3321SOL     OW 9986   4.646   0.503   0.899
 3321SOL    HW1 9987   4.621   0.494   0.803
 3321SOL    HW2 9988   4.694   0.421   0.930
 3322SOL     OW 9989   4.263   0.064   0.512
 3322SOL    HW1 9990   4.182   0.065   0.570
 3322SOL    HW2 9991   4.266   0.147   0.457
 3323SOL     OW 9992   5.158   1.188   0.041
 3323SOL    HW1 9993   5.190   1.112   0.098
 3323SOL    HW2 9994   5.066   1.215   0.071
 3324SOL     OW 9995   4.021   0.035   0.171
 3324SOL    HW1 9996   4.070   0.119   0.150
 3324SOL    HW2 9997   4.083  -0.030   0.216
 3325SOL     OW 9998   4.659   0.236   0.480
 3325SOL    HW1 9999   4.611   0.277   0.402
 3325SOL    HW210000   4.758   0.234   0.461
 3326SOL     OW10001   4.800   0.683   1.464
 3326SOL    HW110002   4.720   0.622   1.467
 3326SOL    HW210003   4.881   0.630   1.440
 3327SOL     OW10004   4.951   1.570   0.793
 3327SOL    HW110005   4.972   1.644   0.728
 3327SOL    HW210006   5.019   1.570   0.866
 3328SOL     OW10007   4.183   1.152   0.741
 3328SOL    HW110008   4.112   1.125   0.806
 3328SOL    HW210009   4.157   1.124   0.648
 3329SOL     OW10010   4.995   1.797   0.591
 3329SOL    HW110011   5.039   1.861   0.527
 3329SOL    HW210012   4.945   1.849   0.661
 3330SOL     OW10013   4.756   0.549   0.016
 3330SOL    HW110014   4.715   0.631  -0.023
 3330SOL    HW210015   4.820   0.575   0.089
 3331SOL     OW10016   3.802   0.556   1.386
 3331SOL    HW110017   3.894   0.555   1.345
 3331SOL    HW210018   3.796   0.630   1.453
 3332SOL     OW10019   4.285   0.222   1.147
 3332SOL    HW110020   4.323   0.138   1.184
 3332SOL    HW210021   4.197   0.241   1.191
 3333SOL     OW10022   4.590   0.454   0.642
 3333SOL    HW110023   4.558   0.526   0.580
 3333SOL    HW210024   4.614   0.373   0.589
 3334SOL     OW10025   4.741   0.039   0.753
 3334SOL    HW110026   4.669   0.044   0.684
 3334SOL    HW210027   4.717  -0.030   0.822
 3335SOL     OW10028   4.212   1.385   0.174
 3335SOL    HW110029   4.125   1.370   0.221
 3335SOL    HW210030   4.195   1.411   0.079
 3336SOL     OW10031   5.114   0.575   0.078
 3336SOL    HW110032   5.060   0.554   0.159
 3336SOL    HW210033   5.205   0.534   0.087
 3337SOL     OW10034   4.251   0.256   0.328
 3337SOL    HW110035   4.278   0.197   0.253
 3337SOL    HW210036   4.251   0.351   0.297
 3338SOL     OW10037   4.788   1.347   1.340
 3338SOL    HW110038   4.708   1.324   1.395
 3338SOL    HW210039   4.871   1.321   1.389
 3339SOL     OW10040   4.835   1.195   1.100
 3339SOL    HW110041   4.795   1.239   1.181
 3339SOL    HW210042   4.794   1.232   1.017
 3340SOL     OW10043   4.639   0.089   1.402
 3340SOL    HW110044   4.664   0.069   1.307
 3340SOL    HW210045   4.711   0.145   1.444
 3341SOL     OW10046   4.704   1.116   1.719
 3341SOL    HW110047   4.605   1.122   1.729
 3341SOL    HW210048   4.727   1.036   1.663
 3342SOL     OW10049   4.429   1.050   0.368
 3342SOL    HW110050   4.415   1.057   0.467
 3342SOL    HW210051   4.513   0.999   0.350
 3343SOL     OW10052   4.134   0.813   1.251
 3343SOL    HW110053   4.220   0.825   1.301
 3343SOL    HW210054   4.092   0.726   1.278
 3344SOL     OW10055   4.998   0.386   1.262
 3344SOL    HW110056   5.019   0.460   1.326
 3344SOL    HW210057   4.909   0.403   1.219
 3345SOL     OW10058   3.788   1.564   1.331
 3345SOL    HW110059   3.742   1.646   1.297
 3345SOL    HW210060   3.886   1.583   1.340
 3346SOL     OW10061   4.091   1.100   0.501
 3346SOL    HW110062   4.084   1.183   0.445
 3346SOL    HW210063   4.095   1.020   0.441
 3347SOL     OW10064   4.290   0.537   0.865
 3347SOL    HW110065   4.302   0.603   0.791
 3347SOL    HW210066   4.336   0.571   0.948
 3348SOL     OW10067   4.976   1.348   0.388
 3348SOL    HW110068   5.026   1.425   0.428
 3348SOL    HW210069   4.881   1.350   0.420
 3349SOL     OW10070   4.996   1.445   1.142
 3349SOL    HW110071   5.043   1.458   1.229
 3349SOL    HW210072   4.930   1.371   1.151
 3350SOL     OW10073   4.078   1.510   1.329
 3350SOL    HW110074   4.057   1.466   1.242
 3350SOL    HW210075   4.175   1.536   1.332
 3351SOL     OW10076   4.126   0.751   1.598
 3351SOL    HW110077   4.194   0.806   1.551
 3351SOL    HW210078   4.166   0.663   1.625
 3352SOL     OW10079   4.737   0.105   1.770
 3352SOL    HW110080   4.743   0.190   1.718
 3352SOL    HW210081   4.769   0.029   1.713
 3353SOL     OW10082   4.228   0.050   1.740
 3353SOL    HW110083   4.186  -0.007   1.670
 3353SOL    HW210084   4.162   0.119   1.772
 3354SOL     OW10085   4.297   0.870   1.029
 3354SOL    HW110086   4.341   0.959   1.020
 3354SOL    HW210087   4.234   0.870   1.106
 3355SOL     OW10088   5.084   0.862   1.045
 3355SOL    HW110089   5.009   0.862   0.979
 3355SOL    HW210090   5.121   0.770   1.054
 3356SOL     OW10091   4.933   0.525   0.275
 3356SOL    HW110092   4.946   0.441   0.329
 3356SOL    HW210093   4.904   0.599   0.335
 3357SOL     OW10094   4.031   0.213   1.231
 3357SOL    HW110095   4.008   0.250   1.321
 3357SOL    HW210096   4.001   0.118   1.225
 3358SOL     OW10097   3.761   1.310   1.282
 3358SOL    HW110098   3.814   1.261   1.350
 3358SOL    HW210099   3.783   1.408   1.287
 3359SOL     OW10100   4.456   0.634   1.064
 3359SOL    HW110101   4.515   0.608   0.988
 3359SOL    HW210102   4.428   0.730   1.053
 3360SOL     OW10103   4.031   0.063   0.618
 3360SOL    HW110104   4.020   0.157   0.651
 3360SOL    HW210105   4.026   0.000   0.695
 3361SOL     OW10106   4.747   0.766   0.966
 3361SOL    HW110107   4.762   0.787   1.062
 3361SOL    HW210108   4.717   0.671   0.957
 3362SOL     OW10109   4.704   1.573   1.700
 3362SOL    HW110110   4.684   1.617   1.612
 3362SOL    HW210111   4.743   1.482   1.684
 3363SOL     OW10112   4.074   0.898   1.804
 3363SOL    HW110113   4.150   0.942   1.852
 3363SOL    HW210114   4.109   0.851   1.722
 3364SOL     OW10115   5.027   0.838   0.042
 3364SOL    HW110116   5.061   0.745   0.057
 3364SOL    HW210117   5.045   0.865  -0.053
 3365SOL     OW10118   4.792   1.333   0.849
 3365SOL    HW110119   4.799   1.249   0.794
 3365SOL    HW210120   4.854   1.402   0.813
 3366SOL     OW10121   4.043   0.810   0.949
 3366SOL    HW110122   4.136   0.846   0.954
 3366SOL    HW210123   4.037   0.725   1.001
 3367SOL     OW10124   4.063   0.509   1.006
 3367SOL    HW110125   4.011   0.426   0.989
 3367SOL    HW210126   4.140   0.514   0.942
 3368SOL     OW10127   4.862   0.380   1.678
 3368SOL    HW110128   4.817   0.443   1.742
 3368SOL    HW210129   4.955   0.411   1.661
 3369SOL     OW10130   4.884   0.207   1.477
 3369SOL    HW110131   4.884   0.271   1.554
 3369SOL    HW210132   4.912   0.255   1.394
 3370SOL     OW10133   3.812   1.801   0.927
 3370SOL    HW110134   3.770   1.715   0.900
 3370SOL    HW210135   3.906   1.804   0.893
 3371SOL     OW10136   4.228   1.568   0.910
 3371SOL    HW110137   4.294   1.642   0.919
 3371SOL    HW210138   4.272   1.489   0.868
 3372SOL     OW10139   4.726   0.796   1.238
 3372SOL    HW110140   4.767   0.764   1.324
 3372SOL    HW210141   4.630   0.769   1.235
 3373SOL     OW10142   3.764   0.544   1.114
 3373SOL    HW110143   3.849   0.511   1.073
 3373SOL    HW210144   3.777   0.559   1.212
 3374SOL     OW10145   3.913   0.520   1.722
 3374SOL    HW110146   3.972   0.480   1.652
 3374SOL    HW210147   3.855   0.591   1.681
 3375SOL     OW10148   5.093   0.950   1.660
 3375SOL    HW110149   5.132   1.039   1.680
 3375SOL    HW210150   5.103   0.930   1.563
 3376SOL     OW10151   4.539   0.572   0.325
 3376SOL    HW110152   4.546   0.483   0.279
 3376SOL    HW210153   4.445   0.606   0.317
 3377SOL     OW10154   3.976   1.564   1.744
 3377SOL    HW110155   3.946   1.621   1.820
 3377SOL    HW210156   3.969   1.467   1.770
 3378SOL     OW10157   4.395   0.464   1.269
 3378SOL    HW110158   4.361   0.375   1.239
 3378SOL    HW210159   4.421   0.518   1.189
 3379SOL     OW10160   4.654   1.678   1.465
 3379SOL    HW110161   4.630   1.660   1.370
 3379SOL    HW210162   4.684   1.772   1.475
 3380SOL     OW10163   4.197   0.500   0.191
 3380SOL    HW110164   4.258   0.580   0.195
 3380SOL    HW210165   4.102   0.531   0.198
 3381SOL     OW10166   3.883   1.137   1.466
 3381SOL    HW110167   3.905   1.076   1.542
 3381SOL    HW210168   3.893   1.088   1.380
 3382SOL     OW10169   5.071   1.059   1.234
 3382SOL    HW110170   5.095   0.996   1.160
 3382SOL    HW210171   4.981   1.099   1.216
 3383SOL     OW10172   5.026   0.855   0.309
 3383SOL    HW110173   4.940   0.824   0.351
 3383SOL    HW210174   5.022   0.841   0.210
 3384SOL     OW10175   4.976   1.731   1.128
 3384SOL    HW110176   5.060   1.736   1.074
 3384SOL    HW210177   4.953   1.635   1.146
 3385SOL     OW10178   3.807   1.258   1.022
 3385SOL    HW110179   3.802   1.257   1.122
 3385SOL    HW210180   3.724   1.217   0.984
 3386SOL     OW10181   4.412   1.662   1.716
 3386SOL    HW110182   4.356   1.743   1.725
 3386SOL    HW210183   4.464   1.666   1.630
 3387SOL     OW10184   4.627   0.086   0.133
 3387SOL    HW110185   4.678   0.087   0.047
 3387SOL    HW210186   4.683   0.044   0.204
 3388SOL     OW10187   5.112   1.573   0.477
 3388SOL    HW110188   5.179   1.585   0.403
 3388SOL    HW210189   5.072   1.662   0.500
 3389SOL     OW10190   3.854   1.794   1.851
 3389SOL    HW110191   3.813   1.720   1.904
 3389SOL    HW210192   3.918   1.845   1.909
 3390SOL     OW10193   5.004   0.927   0.672
 3390SOL    HW110194   5.064   0.846   0.674
 3390SOL    HW210195   5.044   0.996   0.612
 3391SOL     OW10196   4.554   1.273   1.422
 3391SOL    HW110197   4.549   1.306   1.517
 3391SOL    HW210198   4.468   1.292   1.376
 3392SOL     OW10199   4.396   1.616   0.154
 3392SOL    HW110200   4.405   1.626   0.055
 3392SOL    HW210201   4.356   1.527   0.175
 3393SOL     OW10202   3.987   0.326   0.720
 3393SOL    HW110203   3.908   0.377   0.686
 3393SOL    HW210204   3.978   0.311   0.818
 3394SOL     OW10205   4.918   1.612   0.031
 3394SOL    HW110206   4.924   1.519   0.068
 3394SOL    HW210207   4.859   1.612  -0.049
 3395SOL     OW10208   4.546   1.002   1.372
 3395SOL    HW110209   4.586   1.001   1.280
 3395SOL    HW210210   4.556   1.094   1.412
 3396SOL     OW10211   4.640   0.910   0.291
 3396SOL    HW110212   4.703   0.948   0.223
 3396SOL    HW210213   4.680   0.827   0.330
 3397SOL     OW10214   4.096   1.288   1.490
 3397SOL    HW110215   4.083   1.381   1.456
 3397SOL    HW210216   4.012   1.236   1.477
 3398SOL     OW10217   4.763   1.098   0.696
 3398SOL    HW110218   4.693   1.051   0.750
 3398SOL    HW210219   4.822   1.030   0.653
 3399SOL     OW10220   4.738   0.236   0.971
 3399SOL    HW110221   4.730   0.200   0.878
 3399SOL    HW210222   4.736   0.160   1.036
 3400SOL     OW10223   4.314   1.487   0.491
 3400SOL    HW110224   4.356   1.429   0.421
 3400SOL    HW210225   4.270   1.566   0.447
 3401SOL     OW10226   3.979   1.348   0.290
 3401SOL    HW110227   3.883   1.349   0.263
 3401SOL    HW210228   3.991   1.401   0.374
 3402SOL     OW10229   3.829   1.013   1.726
 3402SOL    HW110230   3.752   0.980   1.780
 3402SOL    HW210231   3.914   0.983   1.768
 3403SOL     OW10232   4.396   0.203   1.489
 3403SOL    HW110233   4.486   0.187   1.449
 3403SOL    HW210234   4.404   0.208   1.588
 3404SOL     OW10235   3.799   0.345   0.033
 3404SOL    HW110236   3.707   0.317   0.004
 3404SOL    HW210237   3.830   0.422  -0.023
 3405SOL     OW10238   5.164   0.856   1.398
 3405SOL    HW110239   5.107   0.908   1.335
 3405SOL    HW210240   5.260   0.868   1.374
 3406SOL     OW10241   3.796   0.166   0.318
 3406SOL    HW110242   3.779   0.249   0.264
 3406SOL    HW210243   3.886   0.129   0.296
 3407SOL     OW10244   4.907   1.335   0.119
 3407SOL    HW110245   4.808   1.324   0.121
 3407SOL    HW210246   4.941   1.350   0.212
 3408SOL     OW10247   4.337   0.842   1.431
 3408SOL    HW110248   4.393   0.923   1.414
 3408SOL    HW210249   4.396   0.762   1.434
 3409SOL     OW10250   4.440   0.565   1.708
 3409SOL    HW110251   4.459   0.630   1.782
 3409SOL    HW210252   4.500   0.485   1.717
 3410SOL     OW10253   5.174   1.220   1.633
 3410SOL    HW110254   5.165   1.210   1.732
 3410SOL    HW210255   5.270   1.213   1.607
 3411SOL     OW10256   4.114   1.741   1.560
 3411SOL    HW110257   4.023   1.782   1.558
 3411SOL    HW210258   4.107   1.647   1.592
 3412SOL     OW10259   4.949   0.325   0.449
 3412SOL    HW110260   5.014   0.251   0.438
 3412SOL    HW210261   4.969   0.375   0.533
 3413SOL     OW10262   4.318   0.745   0.652
 3413SOL    HW110263   4.368   0.830   0.633
 3413SOL    HW210264   4.230   0.747   0.604
 3414SOL     OW10265   4.583   1.374   0.016
 3414SOL    HW110266   4.537   1.389   0.104
 3414SOL    HW210267   4.627   1.459  -0.014
 3415SOL     OW10268   4.385   1.790   0.953
 3415SOL    HW110269   4.339   1.878   0.940
 3415SOL    HW210270   4.484   1.802   0.946
 3416SOL     OW10271   4.583   0.956   0.861
 3416SOL    HW110272   4.637   0.887   0.909
 3416SOL    HW210273   4.551   1.025   0.927
 3417SOL     OW10274   4.807   0.984   0.087
 3417SOL    HW110275   4.784   1.037   0.005
 3417SOL    HW210276   4.888   0.928   0.068
 3418SOL     OW10277   3.945   1.314   1.844
 3418SOL    HW110278   3.880   1.241   1.823
 3418SOL    HW210279   3.949   1.328   1.942
 3419SOL     OW10280   3.803   1.240   0.653
 3419SOL    HW110281   3.802   1.193   0.741
 3419SOL    HW210282   3.885   1.212   0.602
 3420SOL     OW10283   4.396   1.391   1.624
 3420SOL    HW110284   4.318   1.341   1.662
 3420SOL    HW210285   4.393   1.486   1.655
 3421SOL     OW10286   4.152   0.424   0.520
 3421SOL    HW110287   4.182   0.352   0.458
 3421SOL    HW210288   4.113   0.384   0.603
 3422SOL     OW10289   4.041   0.547   1.280
 3422SOL    HW110290   4.079   0.488   1.352
 3422SOL    HW210291   4.081   0.521   1.192
 3423SOL     OW10292   4.536   1.586   0.687
 3423SOL    HW110293   4.568   1.596   0.593
 3423SOL    HW210294   4.457   1.524   0.689
 3424SOL     OW10295   4.725   0.034   1.154
 3424SOL    HW110296   4.662  -0.038   1.123
 3424SOL    HW210297   4.818  -0.002   1.154
 3425SOL     OW10298   4.494   1.330   0.301
 3425SOL    HW110299   4.448   1.243   0.318
 3425SOL    HW210300   4.585   1.327   0.342
 3426SOL     OW10301   4.342   1.567   1.284
 3426SOL    HW110302   4.337   1.649   1.341
 3426SOL    HW210303   4.431   1.564   1.239
 3427SOL     OW10304   5.076   0.052   0.168
 3427SOL    HW110305   5.111   0.011   0.084
 3427SOL    HW210306   4.986   0.014   0.188
 3428SOL     OW10307   3.763   1.077   0.300
 3428SOL    HW110308   3.862   1.066   0.291
 3428SOL    HW210309   3.723   0.991   0.332
 3429SOL     OW10310   4.599   1.646   0.337
 3429SOL    HW110311   4.522   1.611   0.283
 3429SOL    HW210312   4.567   1.717   0.399
 3430SOL     OW10313   3.954   0.628   1.975
 3430SOL    HW110314   3.861   0.626   2.012
 3430SOL    HW210315   3.955   0.589   1.883
 3431SOL     OW10316   3.949   0.275   2.858
 3431SOL    HW110317   3.984   0.258   2.950
 3431SOL    HW210318   3.861   0.230   2.846
 3432SOL     OW10319   3.743   0.368   2.509
 3432SOL    HW110320   3.661   0.411   2.548
 3432SOL    HW210321   3.715   0.295   2.446
 3433SOL     OW10322   4.293   1.275   3.027
 3433SOL    HW110323   4.200   1.268   2.990
 3433SOL    HW210324   4.304   1.364   3.071
 3434SOL     OW10325   5.279   1.511   2.565
 3434SOL    HW110326   5.222   1.495   2.646
 3434SOL    HW210327   5.220   1.521   2.485
 3435SOL     OW10328   4.859   0.703   2.579
 3435SOL    HW110329   4.916   0.781   2.554
 3435SOL    HW210330   4.799   0.729   2.655
 3436SOL     OW10331   4.492   1.144   2.885
 3436SOL    HW110332   4.414   1.161   2.945
 3436SOL    HW210333   4.526   1.231   2.849
 3437SOL     OW10334   4.574   0.798   3.685
 3437SOL    HW110335   4.570   0.874   3.750
 3437SOL    HW210336   4.596   0.834   3.594
 3438SOL     OW10337   4.409   1.012   2.527
 3438SOL    HW110338   4.478   0.996   2.597
 3438SOL    HW210339   4.336   1.069   2.565
 3439SOL     OW10340   4.410   1.161   3.665
 3439SOL    HW110341   4.470   1.240   3.679
 3439SOL    HW210342   4.324   1.192   3.624
 3440SOL     OW10343   4.059   1.435   2.923
 3440SOL    HW110344   3.981   1.404   2.870
 3440SOL    HW210345   4.117   1.493   2.866
 3441SOL     OW10346   4.162   0.392   3.361
 3441SOL    HW110347   4.244   0.336   3.370
 3441SOL    HW210348   4.081   0.334   3.365
 3442SOL     OW10349   3.955   1.713   2.345
 3442SOL    HW110350   3.989   1.790   2.399
 3442SOL    HW210351   3.999   1.713   2.255
 3443SOL     OW10352   4.851   1.341   3.552
 3443SOL    HW110353   4.898   1.341   3.640
 3443SOL    HW210354   4.803   1.254   3.541
 3444SOL     OW10355   3.954   1.434   2.400
 3444SOL    HW110356   3.928   1.530   2.400
 3444SOL    HW210357   3.883   1.380   2.445
 3445SOL     OW10358   3.964   1.091   2.748
 3445SOL    HW110359   3.978   1.007   2.800
 3445SOL    HW210360   3.909   1.155   2.803
 3446SOL     OW10361   4.344   1.786   3.301
 3446SOL    HW110362   4.252   1.769   3.336
 3446SOL    HW210363   4.372   1.878   3.327
 3447SOL     OW10364   4.330   0.964   1.985
 3447SOL    HW110365   4.337   1.048   1.931
 3447SOL    HW210366   4.376   0.977   2.073
 3448SOL     OW10367   3.846   0.643   2.425
 3448SOL    HW110368   3.801   0.555   2.442
 3448SOL    HW210369   3.845   0.697   2.509
 3449SOL     OW10370   3.751   1.596   1.979
 3449SOL    HW110371   3.732   1.500   2.000
 3449SOL    HW210372   3.718   1.654   2.054
 3450SOL     OW10373   5.413   0.922   2.474
 3450SOL    HW110374   5.508   0.893   2.482
 3450SOL    HW210375   5.405   0.987   2.399
 3451SOL     OW10376   3.837   0.737   3.459
 3451SOL    HW110377   3.925   0.724   3.504
 3451SOL    HW210378   3.824   0.834   3.437
 3452SOL     OW10379   4.337   1.365   2.588
 3452SOL    HW110380   4.288   1.278   2.597
 3452SOL    HW210381   4.314   1.408   2.501
 3453SOL     OW10382   5.017   1.228   3.285
 3453SOL    HW110383   5.054   1.155   3.227
 3453SOL    HW210384   5.069   1.233   3.370
 3454SOL     OW10385   4.533   0.004   2.364
 3454SOL    HW110386   4.573   0.095   2.355
 3454SOL    HW210387   4.433   0.012   2.370
 3455SOL     OW10388   3.921   0.976   3.126
 3455SOL    HW110389   4.010   0.931   3.112
 3455SOL    HW210390   3.848   0.911   3.107
 3456SOL     OW10391   4.911   1.792   3.478
 3456SOL    HW110392   4.935   1.852   3.402
 3456SOL    HW210393   4.918   1.697   3.448
 3457SOL     OW10394   4.041   0.251   3.663
 3457SOL    HW110395   4.112   0.322   3.669
 3457SOL    HW210396   3.953   0.290   3.691
 3458SOL     OW10397   4.322   0.729   2.132
 3458SOL    HW110398   4.346   0.798   2.064
 3458SOL    HW210399   4.244   0.762   2.186
 3459SOL     OW10400   5.005   0.345   2.806
 3459SOL    HW110401   4.919   0.295   2.793
 3459SOL    HW210402   5.067   0.291   2.862
 3460SOL     OW10403   4.531   0.605   3.327
 3460SOL    HW110404   4.484   0.602   3.416
 3460SOL    HW210405   4.480   0.550   3.261
 3461SOL     OW10406   5.118   0.469   3.536
 3461SOL    HW110407   5.098   0.512   3.624
 3461SOL    HW210408   5.196   0.407   3.545
 3462SOL     OW10409   4.697   0.890   3.434
 3462SOL    HW110410   4.743   0.806   3.405
 3462SOL    HW210411   4.641   0.924   3.359
 3463SOL     OW10412   4.715   0.410   3.104
 3463SOL    HW110413   4.638   0.444   3.158
 3463SOL    HW210414   4.681   0.359   3.025
 3464SOL     OW10415   4.765   0.701   2.291
 3464SOL    HW110416   4.791   0.697   2.387
 3464SOL    HW210417   4.680   0.650   2.277
 3465SOL     OW10418   3.800   0.811   2.651
 3465SOL    HW110419   3.899   0.799   2.660
 3465SOL    HW210420   3.776   0.906   2.672
 3466SOL     OW10421   3.854   1.821   3.433
 3466SOL    HW110422   3.844   1.806   3.532
 3466SOL    HW210423   3.768   1.857   3.397
 3467SOL     OW10424   4.589   0.348   2.057
 3467SOL    HW110425   4.648   0.411   2.008
 3467SOL    HW210426   4.608   0.254   2.028
 3468SOL     OW10427   5.086   1.144   2.407
 3468SOL    HW110428   5.169   1.115   2.359
 3468SOL    HW210429   5.037   1.211   2.351
 3469SOL     OW10430   4.274   0.196   2.747
 3469SOL    HW110431   4.269   0.191   2.847
 3469SOL    HW210432   4.276   0.292   2.718
 3470SOL     OW10433   4.732   1.456   2.339
 3470SOL    HW110434   4.686   1.528   2.287
 3470SOL    HW210435   4.728   1.476   2.437
 3471SOL     OW10436   4.075   1.801   2.715
 3471SOL    HW110437   4.125   1.715   2.721
 3471SOL    HW210438   4.140   1.878   2.712
 3472SOL     OW10439   4.951   1.550   3.368
 3472SOL    HW110440   4.957   1.473   3.432
 3472SOL    HW210441   4.899   1.524   3.288
 3473SOL     OW10442   4.045   0.943   2.104
 3473SOL    HW110443   4.127   0.982   2.062
 3473SOL    HW210444   4.018   0.861   2.055
 3474SOL     OW10445   4.185   1.266   3.589
 3474SOL    HW110446   4.135   1.267   3.503
 3474SOL    HW210447   4.122   1.248   3.665
 3475SOL     OW10448   4.835   1.776   2.099
 3475SOL    HW110449   4.775   1.714   2.149
 3475SOL    HW210450   4.866   1.732   2.014
 3476SOL     OW10451   3.926   0.285   3.360
 3476SOL    HW110452   3.846   0.345   3.347
 3476SOL    HW210453   3.916   0.236   3.446
 3477SOL     OW10454   4.188   1.743   2.185
 3477SOL    HW110455   4.221   1.782   2.271
 3477SOL    HW210456   4.264   1.736   2.120
 3478SOL     OW10457   3.973   1.785   3.103
 3478SOL    HW110458   4.030   1.720   3.153
 3478SOL    HW210459   3.957   1.752   3.010
 3479SOL     OW10460   4.664   1.698   2.766
 3479SOL    HW110461   4.744   1.641   2.787
 3479SOL    HW210462   4.615   1.658   2.689
 3480SOL     OW10463   4.106   0.700   2.342
 3480SOL    HW110464   4.151   0.610   2.339
 3480SOL    HW210465   4.012   0.689   2.375
 3481SOL     OW10466   4.338   0.122   1.979
 3481SOL    HW110467   4.436   0.100   1.986
 3481SOL    HW210468   4.307   0.105   1.886
 3482SOL     OW10469   4.505   0.264   3.611
 3482SOL    HW110470   4.572   0.203   3.654
 3482SOL    HW210471   4.432   0.283   3.676
 3483SOL     OW10472   4.612   1.514   3.057
 3483SOL    HW110473   4.589   1.489   2.963
 3483SOL    HW210474   4.673   1.445   3.096
 3484SOL     OW10475   5.075   0.590   3.295
 3484SOL    HW110476   5.103   0.547   3.380
 3484SOL    HW210477   5.100   0.686   3.296
 3485SOL     OW10478   4.527   1.402   2.786
 3485SOL    HW110479   4.617   1.416   2.744
 3485SOL    HW210480   4.456   1.404   2.715
 3486SOL     OW10481   4.646   0.503   2.761
 3486SOL    HW110482   4.621   0.494   2.665
 3486SOL    HW210483   4.694   0.421   2.792
 3487SOL     OW10484   4.263   0.064   2.374
 3487SOL    HW110485   4.182   0.065   2.432
 3487SOL    HW210486   4.266   0.147   2.319
 3488SOL     OW10487   5.158   1.188   1.903
 3488SOL    HW110488   5.190   1.112   1.960
 3488SOL    HW210489   5.066   1.215   1.933
 3489SOL     OW10490   4.021   0.035   2.033
 3489SOL    HW110491   4.070   0.119   2.012
 3489SOL    HW210492   4.083  -0.030   2.078
 3490SOL     OW10493   4.659   0.236   2.342
 3490SOL    HW110494   4.611   0.277   2.264
 3490SOL    HW210495   4.758   0.234   2.323
 3491SOL     OW10496   4.800   0.683   3.326
 3491SOL    HW110497   4.720   0.622   3.329
 3491SOL    HW210498   4.881   0.630   3.302
 3492SOL     OW10499   4.951   1.570   2.655
 3492SOL    HW110500   4.972   1.644   2.590
 3492SOL    HW210501   5.019   1.570   2.728
 3493SOL     OW10502   4.183   1.152   2.603
 3493SOL    HW110503   4.112   1.125   2.668
 3493SOL    HW210504   4.157   1.124   2.510
 3494SOL     OW10505   4.995   1.797   2.453
 3494SOL    HW110506   5.039   1.861   2.389
 3494SOL    HW210507   4.945   1.849   2.523
 3495SOL     OW10508   4.756   0.549   1.878
 3495SOL    HW110509   4.715   0.631   1.839
 3495SOL    HW210510   4.820   0.575   1.951
 3496SOL     OW10511   3.802   0.556   3.248
 3496SOL    HW110512   3.894   0.555   3.207
 3496SOL    HW210513   3.796   0.630   3.315
 3497SOL     OW10514   4.285   0.222   3.009
 3497SOL    HW110515   4.323   0.138   3.046
 3497SOL    HW210516   4.197   0.241   3.053
 3498SOL     OW10517   4.590   0.454   2.504
 3498SOL    HW110518   4.558   0.526   2.442
 3498SOL    HW210519   4.614   0.373   2.451
 3499SOL     OW10520   4.741   0.039   2.615
 3499SOL    HW110521   4.669   0.044   2.546
 3499SOL    HW210522   4.717  -0.030   2.684
 3500SOL     OW10523   4.212   1.385   2.036
 3500SOL    HW110524   4.125   1.370   2.083
 3500SOL    HW210525   4.195   1.411   1.941
 3501SOL     OW10526   5.114   0.575   1.940
 3501SOL    HW110527   5.060   0.554   2.021
 3501SOL    HW210528   5.205   0.534   1.949
 3502SOL     OW10529   4.251   0.256   2.190
 3502SOL    HW110530   4.278   0.197   2.115
 3502SOL    HW210531   4.251   0.351   2.159
 3503SOL     OW10532   4.788   1.347   3.202
 3503SOL    HW110533   4.708   1.324   3.257
 3503SOL    HW210534   4.871   1.321   3.251
 3504SOL     OW10535   4.835   1.195   2.962
 3504SOL    HW110536   4.795   1.239   3.043
 3504SOL    HW210537   4.794   1.232   2.879
 3505SOL     OW10538   4.639   0.089   3.264
 3505SOL    HW110539   4.664   0.069   3.169
 3505SOL    HW210540   4.711   0.145   3.306
 3506SOL     OW10541   4.704   1.116   3.581
 3506SOL    HW110542   4.605   1.122   3.591
 3506SOL    HW210543   4.727   1.036   3.525
 3507SOL     OW10544   4.429   1.050   2.230
 3507SOL    HW110545   4.415   1.057   2.329
 3507SOL    HW210546   4.513   0.999   2.212
 3508SOL     OW10547   4.134   0.813   3.113
 3508SOL    HW110548   4.220   0.825   3.163
 3508SOL    HW210549   4.092   0.726   3.140
 3509SOL     OW10550   4.998   0.386   3.124
 3509SOL    HW110551   5.019   0.460   3.188
 3509SOL    HW210552   4.909   0.403   3.081
 3510SOL     OW10553   3.788   1.564   3.193
 3510SOL    HW110554   3.742   1.646   3.159
 3510SOL    HW210555   3.886   1.583   3.202
 3511SOL     OW10556   4.091   1.100   2.363
 3511SOL    HW110557   4.084   1.183   2.307
 3511SOL    HW210558   4.095   1.020   2.303
 3512SOL     OW10559   4.290   0.537   2.727
 3512SOL    HW110560   4.302   0.603   2.653
 3512SOL    HW210561   4.336   0.571   2.810
 3513SOL     OW10562   4.976   1.348   2.250
 3513SOL    HW110563   5.026   1.425   2.290
 3513SOL    HW210564   4.881   1.350   2.282
 3514SOL     OW10565   4.996   1.445   3.004
 3514SOL    HW110566   5.043   1.458   3.091
 3514SOL    HW210567   4.930   1.371   3.013
 3515SOL     OW10568   4.078   1.510   3.191
 3515SOL    HW110569   4.057   1.466   3.104
 3515SOL    HW210570   4.175   1.536   3.194
 3516SOL     OW10571   4.126   0.751   3.460
 3516SOL    HW110572   4.194   0.806   3.413
 3516SOL    HW210573   4.166   0.663   3.487
 3517SOL     OW10574   4.737   0.105   3.632
 3517SOL    HW110575   4.743   0.190   3.580
 3517SOL    HW210576   4.769   0.029   3.575
 3518SOL     OW10577   4.228   0.050   3.602
 3518SOL    HW110578   4.186  -0.007   3.532
 3518SOL    HW210579   4.162   0.119   3.634
 3519SOL     OW10580   4.297   0.870   2.891
 3519SOL    HW110581   4.341   0.959   2.882
 3519SOL    HW210582   4.234   0.870   2.968
 3520SOL     OW10583   5.084   0.862   2.907
 3520SOL    HW110584   5.009   0.862   2.841
 3520SOL    HW210585   5.121   0.770   2.916
 3521SOL     OW10586   4.933   0.525   2.137
 3521SOL    HW110587   4.946   0.441   2.191
 3521SOL    HW210588   4.904   0.599   2.197
 3522SOL     OW10589   4.031   0.213   3.093
 3522SOL    HW110590   4.008   0.250   3.183
 3522SOL    HW210591   4.001   0.118   3.087
 3523SOL     OW10592   3.761   1.310   3.144
 3523SOL    HW110593   3.814   1.261   3.212
 3523SOL    HW210594   3.783   1.408   3.149
 3524SOL     OW10595   4.456   0.634   2.926
 3524SOL    HW110596   4.515   0.608   2.850
 3524SOL    HW210597   4.428   0.730   2.915
 3525SOL     OW10598   4.031   0.063   2.480
 3525SOL    HW110599   4.020   0.157   2.513
 3525SOL    HW210600   4.026   0.000   2.557
 3526SOL     OW10601   4.747   0.766   2.828
 3526SOL    HW110602   4.762   0.787   2.924
 3526SOL    HW210603   4.717   0.671   2.819
 3527SOL     OW10604   4.704   1.573   3.562
 3527SOL    HW110605   4.684   1.617   3.474
 3527SOL    HW210606   4.743   1.482   3.546
 3528SOL     OW10607   4.074   0.898   3.666
 3528SOL    HW110608   4.150   0.942   3.714
 3528SOL    HW210609   4.109   0.851   3.584
 3529SOL     OW10610   5.027   0.838   1.904
 3529SOL    HW110611   5.061   0.745   1.919
 3529SOL    HW210612   5.045   0.865   1.809
 3530SOL     OW10613   4.792   1.333   2.711
 3530SOL    HW110614   4.799   1.249   2.656
 3530SOL    HW210615   4.854   1.402   2.675
 3531SOL     OW10616   4.043   0.810   2.811
 3531SOL    HW110617   4.136   0.846   2.816
 3531SOL    HW210618   4.037   0.725   2.863
 3532SOL     OW10619   4.063   0.509   2.868
 3532SOL    HW110620   4.011   0.426   2.851
 3532SOL    HW210621   4.140   0.514   2.804
 3533SOL     OW10622   4.862   0.380   3.540
 3533SOL    HW110623   4.817   0.443   3.604
 3533SOL    HW210624   4.955   0.411   3.523
 3534SOL     OW10625   4.884   0.207   3.339
 3534SOL    HW110626   4.884   0.271   3.416
 3534SOL    HW210627   4.912   0.255   3.256
 3535SOL     OW10628   3.732   1.326   2.062
 3535SOL    HW110629   3.639   1.347   2.031
 3535SOL    HW210630   3.742   1.227   2.075
 3536SOL     OW10631   3.812   1.801   2.789
 3536SOL    HW110632   3.770   1.715   2.762
 3536SOL    HW210633   3.906   1.804   2.755
 3537SOL     OW10634   4.228   1.568   2.772
 3537SOL    HW110635   4.294   1.642   2.781
 3537SOL    HW210636   4.272   1.489   2.730
 3538SOL     OW10637   4.726   0.796   3.100
 3538SOL    HW110638   4.767   0.764   3.186
 3538SOL    HW210639   4.630   0.769   3.097
 3539SOL     OW10640   3.764   0.544   2.976
 3539SOL    HW110641   3.849   0.511   2.935
 3539SOL    HW210642   3.777   0.559   3.074
 3540SOL     OW10643   3.913   0.520   3.584
 3540SOL    HW110644   3.972   0.480   3.514
 3540SOL    HW210645   3.855   0.591   3.543
 3541SOL     OW10646   5.093   0.950   3.522
 3541SOL    HW110647   5.132   1.039   3.542
 3541SOL    HW210648   5.103   0.930   3.425
 3542SOL     OW10649   4.539   0.572   2.187
 3542SOL    HW110650   4.546   0.483   2.141
 3542SOL    HW210651   4.445   0.606   2.179
 3543SOL     OW10652   3.976   1.564   3.606
 3543SOL    HW110653   3.946   1.621   3.682
 3543SOL    HW210654   3.969   1.467   3.632
 3544SOL     OW10655   4.395   0.464   3.131
 3544SOL    HW110656   4.361   0.375   3.101
 3544SOL    HW210657   4.421   0.518   3.051
 3545SOL     OW10658   4.654   1.678   3.327
 3545SOL    HW110659   4.630   1.660   3.232
 3545SOL    HW210660   4.684   1.772   3.337
 3546SOL     OW10661   4.197   0.500   2.053
 3546SOL    HW110662   4.258   0.580   2.057
 3546SOL    HW210663   4.102   0.531   2.060
 3547SOL     OW10664   3.883   1.137   3.328
 3547SOL    HW110665   3.905   1.076   3.404
 3547SOL    HW210666   3.893   1.088   3.242
 3548SOL     OW10667   5.071   1.059   3.096
 3548SOL    HW110668   5.095   0.996   3.022
 3548SOL    HW210669   4.981   1.099   3.078
 3549SOL     OW10670   5.026   0.855   2.171
 3549SOL    HW110671   4.940   0.824   2.213
 3549SOL    HW210672   5.022   0.841   2.072
 3550SOL     OW10673   4.976   1.731   2.990
 3550SOL    HW110674   5.060   1.736   2.936
 3550SOL    HW210675   4.953   1.635   3.008
 3551SOL     OW10676   3.807   1.258   2.884
 3551SOL    HW110677   3.802   1.257   2.984
 3551SOL    HW210678   3.724   1.217   2.846
 3552SOL     OW10679   4.412   1.662   3.578
 3552SOL    HW110680   4.356   1.743   3.587
 3552SOL    HW210681   4.464   1.666   3.492
 3553SOL     OW10682   5.112   1.573   2.339
 3553SOL    HW110683   5.179   1.585   2.265
 3553SOL    HW210684   5.072   1.662   2.362
 3554SOL     OW10685   3.854   1.794   3.713
 3554SOL    HW110686   3.813   1.720   3.766
 3554SOL    HW210687   3.918   1.845   3.771
 3555SOL     OW10688   5.004   0.927   2.534
 3555SOL    HW110689   5.064   0.846   2.536
 3555SOL    HW210690   5.044   0.996   2.474
 3556SOL     OW10691   4.554   1.273   3.284
 3556SOL    HW110692   4.549   1.306   3.379
 3556SOL    HW210693   4.468   1.292   3.238
 3557SOL     OW10694   4.396   1.616   2.016
 3557SOL    HW110695   4.405   1.626   1.917
 3557SOL    HW210696   4.356   1.527   2.037
 3558SOL     OW10697   3.987   0.326   2.582
 3558SOL    HW110698   3.908   0.377   2.548
 3558SOL    HW210699   3.978   0.311   2.680
 3559SOL     OW10700   4.918   1.612   1.893
 3559SOL    HW110701   4.924   1.519   1.930
 3559SOL    HW210702   4.859   1.612   1.813
 3560SOL     OW10703   4.546   1.002   3.234
 3560SOL    HW110704   4.586   1.001   3.142
 3560SOL    HW210705   4.556   1.094   3.274
 3561SOL     OW10706   4.640   0.910   2.153
 3561SOL    HW110707   4.703   0.948   2.085
 3561SOL    HW210708   4.680   0.827   2.192
 3562SOL     OW10709   4.096   1.288   3.352
 3562SOL    HW110710   4.083   1.381   3.318
 3562SOL    HW210711   4.012   1.236   3.339
 3563SOL     OW10712   4.763   1.098   2.558
 3563SOL    HW110713   4.693   1.051   2.612
 3563SOL    HW210714   4.822   1.030   2.515
 3564SOL     OW10715   4.738   0.236   2.833
 3564SOL    HW110716   4.730   0.200   2.740
 3564SOL    HW210717   4.736   0.160   2.898
 3565SOL     OW10718   4.314   1.487   2.353
 3565SOL    HW110719   4.356   1.429   2.283
 3565SOL    HW210720   4.270   1.566   2.309
 3566SOL     OW10721   3.979   1.348   2.152
 3566SOL    HW110722   3.883   1.349   2.125
 3566SOL    HW210723   3.991   1.401   2.236
 3567SOL     OW10724   3.829   1.013   3.588
 3567SOL    HW110725   3.752   0.980   3.642
 3567SOL    HW210726   3.914   0.983   3.630
 3568SOL     OW10727   4.396   0.203   3.351
 3568SOL    HW110728   4.486   0.187   3.311
 3568SOL    HW210729   4.404   0.208   3.450
 3569SOL     OW10730   3.799   0.345   1.895
 3569SOL    HW110731   3.707   0.317   1.866
 3569SOL    HW210732   3.830   0.422   1.839
 3570SOL     OW10733   5.164   0.856   3.260
 3570SOL    HW110734   5.107   0.908   3.197
 3570SOL    HW210735   5.260   0.868   3.236
 3571SOL     OW10736   3.796   0.166   2.180
 3571SOL    HW110737   3.779   0.249   2.126
 3571SOL    HW210738   3.886   0.129   2.158
 3572SOL     OW10739   4.907   1.335   1.981
 3572SOL    HW110740   4.808   1.324   1.983
 3572SOL    HW210741   4.941   1.350   2.074
 3573SOL     OW10742   4.337   0.842   3.293
 3573SOL    HW110743   4.393   0.923   3.276
 3573SOL    HW210744   4.396   0.762   3.296
 3574SOL     OW10745   4.440   0.565   3.570
 3574SOL    HW110746   4.459   0.630   3.644
 3574SOL    HW210747   4.500   0.485   3.579
 3575SOL     OW10748   5.174   1.220   3.495
 3575SOL    HW110749   5.165   1.210   3.594
 3575SOL    HW210750   5.270   1.213   3.469
 3576SOL     OW10751   4.114   1.741   3.422
 3576SOL    HW110752   4.023   1.782   3.420
 3576SOL    HW210753   4.107   1.647   3.454
 3577SOL     OW10754   4.949   0.325   2.311
 3577SOL    HW110755   5.014   0.251   2.300
 3577SOL    HW210756   4.969   0.375   2.395
 3578SOL     OW10757   4.318   0.745   2.514
 3578SOL    HW110758   4.368   0.830   2.495
 3578SOL    HW210759   4.230   0.747   2.466
 3579SOL     OW10760   4.583   1.374   1.878
 3579SOL    HW110761   4.537   1.389   1.966
 3579SOL    HW210762   4.627   1.459   1.848
 3580SOL     OW10763   4.385   1.790   2.815
 3580SOL    HW110764   4.339   1.878   2.802
 3580SOL    HW210765   4.484   1.802   2.808
 3581SOL     OW10766   4.583   0.956   2.723
 3581SOL    HW110767   4.637   0.887   2.771
 3581SOL    HW210768   4.551   1.025   2.789
 3582SOL     OW10769   4.807   0.984   1.949
 3582SOL    HW110770   4.784   1.037   1.867
 3582SOL    HW210771   4.888   0.928   1.930
 3583SOL     OW10772   3.945   1.314   3.706
 3583SOL    HW110773   3.880   1.241   3.685
 3583SOL    HW210774   3.949   1.328   3.804
 3584SOL     OW10775   3.803   1.240   2.515
 3584SOL    HW110776   3.802   1.193   2.603
 3584SOL    HW210777   3.885   1.212   2.464
 3585SOL     OW10778   4.396   1.391   3.486
 3585SOL    HW110779   4.318   1.341   3.524
 3585SOL    HW210780   4.393   1.486   3.517
 3586SOL     OW10781   4.152   0.424   2.382
 3586SOL    HW110782   4.182   0.352   2.320
 3586SOL    HW210783   4.113   0.384   2.465
 3587SOL     OW10784   4.041   0.547   3.142
 3587SOL    HW110785   4.079   0.488   3.214
 3587SOL    HW210786   4.081   0.521   3.054
 3588SOL     OW10787   4.536   1.586   2.549
 3588SOL    HW110788   4.568   1.596   2.455
 3588SOL    HW210789   4.457   1.524   2.551
 3589SOL     OW10790   4.725   0.034   3.016
 3589SOL    HW110791   4.662  -0.038   2.985
 3589SOL    HW210792   4.818  -0.002   3.016
 3590SOL     OW10793   4.494   1.330   2.163
 3590SOL    HW110794   4.448   1.243   2.180
 3590SOL    HW210795   4.585   1.327   2.204
 3591SOL     OW10796   4.342   1.567   3.146
 3591SOL    HW110797   4.337   1.649   3.203
 3591SOL    HW210798   4.431   1.564   3.101
 3592SOL     OW10799   5.076   0.052   2.030
 3592SOL    HW110800   5.111   0.011   1.946
 3592SOL    HW210801   4.986   0.014   2.050
 3593SOL     OW10802   3.763   1.077   2.162
 3593SOL    HW110803   3.862   1.066   2.153
 3593SOL    HW210804   3.723   0.991   2.194
 3594SOL     OW10805   4.599   1.646   2.199
 3594SOL    HW110806   4.522   1.611   2.145
 3594SOL    HW210807   4.567   1.717   2.261
 3595SOL     OW10808   3.954   0.628   3.837
 3595SOL    HW110809   3.861   0.626   3.874
 3595SOL    HW210810   3.955   0.589   3.745
 3596SOL     OW10811   3.949   0.275   4.720
 3596SOL    HW110812   3.984   0.258   4.812
 3596SOL    HW210813   3.861   0.230   4.708
 3597SOL     OW10814   3.743   0.368   4.371
 3597SOL    HW110815   3.661   0.411   4.410
 3597SOL    HW210816   3.715   0.295   4.308
 3598SOL     OW10817   4.293   1.275   4.889
 3598SOL    HW110818   4.200   1.268   4.852
 3598SOL    HW210819   4.304   1.364   4.933
 3599SOL     OW10820   5.279   1.511   4.427
 3599SOL    HW110821   5.222   1.495   4.508
 3599SOL    HW210822   5.220   1.521   4.347
 3600SOL     OW10823   4.859   0.703   4.441
 3600SOL    HW110824   4.916   0.781   4.416
 3600SOL    HW210825   4.799   0.729   4.517
 3601SOL     OW10826   4.492   1.144   4.747
 3601SOL    HW110827   4.414   1.161   4.807
 3601SOL    HW210828   4.526   1.231   4.711
 3602SOL     OW10829   4.409   1.012   4.389
 3602SOL    HW110830   4.478   0.996   4.459
 3602SOL    HW210831   4.336   1.069   4.427
 3603SOL     OW10832   4.059   1.435   4.785
 3603SOL    HW110833   3.981   1.404   4.732
 3603SOL    HW210834   4.117   1.493   4.728
 3604SOL     OW10835   4.162   0.392   5.223
 3604SOL    HW110836   4.244   0.336   5.232
 3604SOL    HW210837   4.081   0.334   5.227
 3605SOL     OW10838   3.955   1.713   4.207
 3605SOL    HW110839   3.989   1.790   4.261
 3605SOL    HW210840   3.999   1.713   4.117
 3606SOL     OW10841   3.954   1.434   4.262
 3606SOL    HW110842   3.928   1.530   4.262
 3606SOL    HW210843   3.883   1.380   4.307
 3607SOL     OW10844   3.964   1.091   4.610
 3607SOL    HW110845   3.978   1.007   4.662
 3607SOL    HW210846   3.909   1.155   4.665
 3608SOL     OW10847   4.344   1.786   5.163
 3608SOL    HW110848   4.252   1.769   5.198
 3608SOL    HW210849   4.372   1.878   5.189
 3609SOL     OW10850   4.330   0.964   3.847
 3609SOL    HW110851   4.337   1.048   3.793
 3609SOL    HW210852   4.376   0.977   3.935
 3610SOL     OW10853   3.846   0.643   4.287
 3610SOL    HW110854   3.801   0.555   4.304
 3610SOL    HW210855   3.845   0.697   4.371
 3611SOL     OW10856   3.751   1.596   3.841
 3611SOL    HW110857   3.732   1.500   3.862
 3611SOL    HW210858   3.718   1.654   3.916
 3612SOL     OW10859   5.413   0.922   4.336
 3612SOL    HW110860   5.508   0.893   4.344
 3612SOL    HW210861   5.405   0.987   4.261
 3613SOL     OW10862   4.337   1.365   4.450
 3613SOL    HW110863   4.288   1.278   4.459
 3613SOL    HW210864   4.314   1.408   4.363
 3614SOL     OW10865   4.533   0.004   4.226
 3614SOL    HW110866   4.573   0.095   4.217
 3614SOL    HW210867   4.433   0.012   4.232
 3615SOL     OW10868   3.921   0.976   4.988
 3615SOL    HW110869   4.010   0.931   4.974
 3615SOL    HW210870   3.848   0.911   4.969
 3616SOL     OW10871   4.322   0.729   3.994
 3616SOL    HW110872   4.346   0.798   3.926
 3616SOL    HW210873   4.244   0.762   4.048
 3617SOL     OW10874   5.005   0.345   4.668
 3617SOL    HW110875   4.919   0.295   4.655
 3617SOL    HW210876   5.067   0.291   4.724
 3618SOL     OW10877   4.531   0.605   5.189
 3618SOL    HW110878   4.484   0.602   5.278
 3618SOL    HW210879   4.480   0.550   5.123
 3619SOL     OW10880   4.715   0.410   4.966
 3619SOL    HW110881   4.638   0.444   5.020
 3619SOL    HW210882   4.681   0.359   4.887
 3620SOL     OW10883   4.765   0.701   4.153
 3620SOL    HW110884   4.791   0.697   4.249
 3620SOL    HW210885   4.680   0.650   4.139
 3621SOL     OW10886   3.800   0.811   4.513
 3621SOL    HW110887   3.899   0.799   4.522
 3621SOL    HW210888   3.776   0.906   4.534
 3622SOL     OW10889   3.854   1.821   5.295
 3622SOL    HW110890   3.844   1.806   5.394
 3622SOL    HW210891   3.768   1.857   5.259
 3623SOL     OW10892   4.589   0.348   3.919
 3623SOL    HW110893   4.648   0.411   3.870
 3623SOL    HW210894   4.608   0.254   3.890
 3624SOL     OW10895   5.086   1.144   4.269
 3624SOL    HW110896   5.169   1.115   4.221
 3624SOL    HW210897   5.037   1.211   4.213
 3625SOL     OW10898   4.274   0.196   4.609
 3625SOL    HW110899   4.269   0.191   4.709
 3625SOL    HW210900   4.276   0.292   4.580
 3626SOL     OW10901   4.732   1.456   4.201
 3626SOL    HW110902   4.686   1.528   4.149
 3626SOL    HW210903   4.728   1.476   4.299
 3627SOL     OW10904   4.075   1.801   4.577
 3627SOL    HW110905   4.125   1.715   4.583
 3627SOL    HW210906   4.140   1.878   4.574
 3628SOL     OW10907   4.045   0.943   3.966
 3628SOL    HW110908   4.127   0.982   3.924
 3628SOL    HW210909   4.018   0.861   3.917
 3629SOL     OW10910   4.835   1.776   3.961
 3629SOL    HW110911   4.775   1.714   4.011
 3629SOL    HW210912   4.866   1.732   3.876
 3630SOL     OW10913   4.188   1.743   4.047
 3630SOL    HW110914   4.221   1.782   4.133
 3630SOL    HW210915   4.264   1.736   3.982
 3631SOL     OW10916   3.973   1.785   4.965
 3631SOL    HW110917   4.030   1.720   5.015
 3631SOL    HW210918   3.957   1.752   4.872
 3632SOL     OW10919   4.664   1.698   4.628
 3632SOL    HW110920   4.744   1.641   4.649
 3632SOL    HW210921   4.615   1.658   4.551
 3633SOL     OW10922   4.106   0.700   4.204
 3633SOL    HW110923   4.151   0.610   4.201
 3633SOL    HW210924   4.012   0.689   4.237
 3634SOL     OW10925   4.338   0.122   3.841
 3634SOL    HW110926   4.436   0.100   3.848
 3634SOL    HW210927   4.307   0.105   3.748
 3635SOL     OW10928   4.612   1.514   4.919
 3635SOL    HW110929   4.589   1.489   4.825
 3635SOL    HW210930   4.673   1.445   4.958
 3636SOL     OW10931   4.527   1.402   4.648
 3636SOL    HW110932   4.617   1.416   4.606
 3636SOL    HW210933   4.456   1.404   4.577
 3637SOL     OW10934   4.646   0.503   4.623
 3637SOL    HW110935   4.621   0.494   4.527
 3637SOL    HW210936   4.694   0.421   4.654
 3638SOL     OW10937   4.263   0.064   4.236
 3638SOL    HW110938   4.182   0.065   4.294
 3638SOL    HW210939   4.266   0.147   4.181
 3639SOL     OW10940   5.158   1.188   3.765
 3639SOL    HW110941   5.190   1.112   3.822
 3639SOL    HW210942   5.066   1.215   3.795
 3640SOL     OW10943   4.021   0.035   3.895
 3640SOL    HW110944   4.070   0.119   3.874
 3640SOL    HW210945   4.083  -0.030   3.940
 3641SOL     OW10946   4.659   0.236   4.204
 3641SOL    HW110947   4.611   0.277   4.126
 3641SOL    HW210948   4.758   0.234   4.185
 3642SOL     OW10949   4.951   1.570   4.517
 3642SOL    HW110950   4.972   1.644   4.452
 3642SOL    HW210951   5.019   1.570   4.590
 3643SOL     OW10952   4.183   1.152   4.465
 3643SOL    HW110953   4.112   1.125   4.530
 3643SOL    HW210954   4.157   1.124   4.372
 3644SOL     OW10955   4.995   1.797   4.315
 3644SOL    HW110956   5.039   1.861   4.251
 3644SOL    HW210957   4.945   1.849   4.385
 3645SOL     OW10958   4.756   0.549   3.740
 3645SOL    HW110959   4.715   0.631   3.701
 3645SOL    HW210960   4.820   0.575   3.813
 3646SOL     OW10961   4.285   0.222   4.871
 3646SOL    HW110962   4.323   0.138   4.908
 3646SOL    HW210963   4.197   0.241   4.915
 3647SOL     OW10964   4.590   0.454   4.366
 3647SOL    HW110965   4.558   0.526   4.304
 3647SOL    HW210966   4.614   0.373   4.313
 3648SOL     OW10967   4.741   0.039   4.477
 3648SOL    HW110968   4.669   0.044   4.408
 3648SOL    HW210969   4.717  -0.030   4.546
 3649SOL     OW10970   4.212   1.385   3.898
 3649SOL    HW110971   4.125   1.370   3.945
 3649SOL    HW210972   4.195   1.411   3.803
 3650SOL     OW10973   5.114   0.575   3.802
 3650SOL    HW110974   5.060   0.554   3.883
 3650SOL    HW210975   5.205   0.534   3.811
 3651SOL     OW10976   4.251   0.256   4.052
 3651SOL    HW110977   4.278   0.197   3.977
 3651SOL    HW210978   4.251   0.351   4.021
 3652SOL     OW10979   4.788   1.347   5.064
 3652SOL    HW110980   4.708   1.324   5.119
 3652SOL    HW210981   4.871   1.321   5.113
 3653SOL     OW10982   4.835   1.195   4.824
 3653SOL    HW110983   4.795   1.239   4.905
 3653SOL    HW210984   4.794   1.232   4.741
 3654SOL     OW10985   4.429   1.050   4.092
 3654SOL    HW110986   4.415   1.057   4.191
 3654SOL    HW210987   4.513   0.999   4.074
 3655SOL     OW10988   4.134   0.813   4.975
 3655SOL    HW110989   4.220   0.825   5.025
 3655SOL    HW210990   4.092   0.726   5.002
 3656SOL     OW10991   4.998   0.386   4.986
 3656SOL    HW110992   5.019   0.460   5.050
 3656SOL    HW210993   4.909   0.403   4.943
 3657SOL     OW10994   3.788   1.564   5.055
 3657SOL    HW110995   3.742   1.646   5.021
 3657SOL    HW210996   3.886   1.583   5.064
 3658SOL     OW10997   4.091   1.100   4.225
 3658SOL    HW110998   4.084   1.183   4.169
 3658SOL    HW210999   4.095   1.020   4.165
 3659SOL     OW11000   4.290   0.537   4.589
 3659SOL    HW111001   4.302   0.603   4.515
 3659SOL    HW211002   4.336   0.571   4.672
 3660SOL     OW11003   4.976   1.348   4.112
 3660SOL    HW111004   5.026   1.425   4.152
 3660SOL    HW211005   4.881   1.350   4.144
 3661SOL     OW11006   4.996   1.445   4.866
 3661SOL    HW111007   5.043   1.458   4.953
 3661SOL    HW211008   4.930   1.371   4.875
 3662SOL     OW11009   4.078   1.510   5.053
 3662SOL    HW111010   4.057   1.466   4.966
 3662SOL    HW211011   4.175   1.536   5.056
 3663SOL     OW11012   4.297   0.870   4.753
 3663SOL    HW111013   4.341   0.959   4.744
 3663SOL    HW211014   4.234   0.870   4.830
 3664SOL     OW11015   5.084   0.862   4.769
 3664SOL    HW111016   5.009   0.862   4.703
 3664SOL    HW211017   5.121   0.770   4.778
 3665SOL     OW11018   4.933   0.525   3.999
 3665SOL    HW111019   4.946   0.441   4.053
 3665SOL    HW211020   4.904   0.599   4.059
 3666SOL     OW11021   4.031   0.213   4.955
 3666SOL    HW111022   4.008   0.250   5.045
 3666SOL    HW211023   4.001   0.118   4.949
 3667SOL     OW11024   3.761   1.310   5.006
 3667SOL    HW111025   3.814   1.261   5.074
 3667SOL    HW211026   3.783   1.408   5.011
 3668SOL     OW11027   4.456   0.634   4.788
 3668SOL    HW111028   4.515   0.608   4.712
 3668SOL    HW211029   4.428   0.730   4.777
 3669SOL     OW11030   4.031   0.063   4.342
 3669SOL    HW111031   4.020   0.157   4.375
 3669SOL    HW211032   4.026   0.000   4.419
 3670SOL     OW11033   4.747   0.766   4.690
 3670SOL    HW111034   4.762   0.787   4.786
 3670SOL    HW211035   4.717   0.671   4.681
 3671SOL     OW11036   5.027   0.838   3.766
 3671SOL    HW111037   5.061   0.745   3.781
 3671SOL    HW211038   5.045   0.865   3.671
 3672SOL     OW11039   4.792   1.333   4.573
 3672SOL    HW111040   4.799   1.249   4.518
 3672SOL    HW211041   4.854   1.402   4.537
 3673SOL     OW11042   4.043   0.810   4.673
 3673SOL    HW111043   4.136   0.846   4.678
 3673SOL    HW211044   4.037   0.725   4.725
 3674SOL     OW11045   4.063   0.509   4.730
 3674SOL    HW111046   4.011   0.426   4.713
 3674SOL    HW211047   4.140   0.514   4.666
 3675SOL     OW11048   4.884   0.207   5.201
 3675SOL    HW111049   4.884   0.271   5.278
 3675SOL    HW211050   4.912   0.255   5.118
 3676SOL     OW11051   3.732   1.326   3.924
 3676SOL    HW111052   3.639   1.347   3.893
 3676SOL    HW211053   3.742   1.227   3.937
 3677SOL     OW11054   3.812   1.801   4.651
 3677SOL    HW111055   3.770   1.715   4.624
 3677SOL    HW211056   3.906   1.804   4.617
 3678SOL     OW11057   4.228   1.568   4.634
 3678SOL    HW111058   4.294   1.642   4.643
 3678SOL    HW211059   4.272   1.489   4.592
 3679SOL     OW11060   4.726   0.796   4.962
 3679SOL    HW111061   4.767   0.764   5.048
 3679SOL    HW211062   4.630   0.769   4.959
 3680SOL     OW11063   3.764   0.544   4.838
 3680SOL    HW111064   3.849   0.511   4.797
 3680SOL    HW211065   3.777   0.559   4.936
 3681SOL     OW11066   4.539   0.572   4.049
 3681SOL    HW111067   4.546   0.483   4.003
 3681SOL    HW211068   4.445   0.606   4.041
 3682SOL     OW11069   4.395   0.464   4.993
 3682SOL    HW111070   4.361   0.375   4.963
 3682SOL    HW211071   4.421   0.518   4.913
 3683SOL     OW11072   4.654   1.678   5.189
 3683SOL    HW111073   4.630   1.660   5.094
 3683SOL    HW211074   4.684   1.772   5.199
 3684SOL     OW11075   4.197   0.500   3.915
 3684SOL    HW111076   4.258   0.580   3.919
 3684SOL    HW211077   4.102   0.531   3.922
 3685SOL     OW11078   3.883   1.137   5.190
 3685SOL    HW111079   3.905   1.076   5.266
 3685SOL    HW211080   3.893   1.088   5.104
 3686SOL     OW11081   5.071   1.059   4.958
 3686SOL    HW111082   5.095   0.996   4.884
 3686SOL    HW211083   4.981   1.099   4.940
 3687SOL     OW11084   5.026   0.855   4.033
 3687SOL    HW111085   4.940   0.824   4.075
 3687SOL    HW211086   5.022   0.841   3.934
 3688SOL     OW11087   4.976   1.731   4.852
 3688SOL    HW111088   5.060   1.736   4.798
 3688SOL    HW211089   4.953   1.635   4.870
 3689SOL     OW11090   3.807   1.258   4.746
 3689SOL    HW111091   3.802   1.257   4.846
 3689SOL    HW211092   3.724   1.217   4.708
 3690SOL     OW11093   5.112   1.573   4.201
 3690SOL    HW111094   5.179   1.585   4.127
 3690SOL    HW211095   5.072   1.662   4.224
 3691SOL     OW11096   5.004   0.927   4.396
 3691SOL    HW111097   5.064   0.846   4.398
 3691SOL    HW211098   5.044   0.996   4.336
 3692SOL     OW11099   4.396   1.616   3.878
 3692SOL    HW111100   4.405   1.626   3.779
 3692SOL    HW211101   4.356   1.527   3.899
 3693SOL     OW11102   3.987   0.326   4.444
 3693SOL    HW111103   3.908   0.377   4.410
 3693SOL    HW211104   3.978   0.311   4.542
 3694SOL     OW11105   4.918   1.612   3.755
 3694SOL    HW111106   4.924   1.519   3.792
 3694SOL    HW211107   4.859   1.612   3.675
 3695SOL     OW11108   4.546   1.002   5.096
 3695SOL    HW111109   4.586   1.001   5.004
 3695SOL    HW211110   4.556   1.094   5.136
 3696SOL     OW11111   4.640   0.910   4.015
 3696SOL    HW111112   4.703   0.948   3.947
 3696SOL    HW211113   4.680   0.827   4.054
 3697SOL     OW11114   4.096   1.288   5.214
 3697SOL    HW111115   4.083   1.381   5.180
 3697SOL    HW211116   4.012   1.236   5.201
 3698SOL     OW11117   4.763   1.098   4.420
 3698SOL    HW111118   4.693   1.051   4.474
 3698SOL    HW211119   4.822   1.030   4.377
 3699SOL     OW11120   4.738   0.236   4.695
 3699SOL    HW111121   4.730   0.200   4.602
 3699SOL    HW211122   4.736   0.160   4.760
 3700SOL     OW11123   4.314   1.487   4.215
 3700SOL    HW111124   4.356   1.429   4.145
 3700SOL    HW211125   4.270   1.566   4.171
 3701SOL     OW11126   3.979   1.348   4.014
 3701SOL    HW111127   3.883   1.349   3.987
 3701SOL    HW211128   3.991   1.401   4.098
 3702SOL     OW11129   3.799   0.345   3.757
 3702SOL    HW111130   3.707   0.317   3.728
 3702SOL    HW211131   3.830   0.422   3.701
 3703SOL     OW11132   3.796   0.166   4.042
 3703SOL    HW111133   3.779   0.249   3.988
 3703SOL    HW211134   3.886   0.129   4.020
 3704SOL     OW11135   4.907   1.335   3.843
 3704SOL    HW111136   4.808   1.324   3.845
 3704SOL    HW211137   4.941   1.350   3.936
 3705SOL     OW11138   4.337   0.842   5.155
 3705SOL    HW111139   4.393   0.923   5.138
 3705SOL    HW211140   4.396   0.762   5.158
 3706SOL     OW11141   4.114   1.741   5.284
 3706SOL    HW111142   4.023   1.782   5.282
 3706SOL    HW211143   4.107   1.647   5.316
 3707SOL     OW11144   4.949   0.325   4.173
 3707SOL    HW111145   5.014   0.251   4.162
 3707SOL    HW211146   4.969   0.375   4.257
 3708SOL     OW11147   4.318   0.745   4.376
 3708SOL    HW111148   4.368   0.830   4.357
 3708SOL    HW211149   4.230   0.747   4.328
 3709SOL     OW11150   4.583   1.374   3.740
 3709SOL    HW111151   4.537   1.389   3.828
 3709SOL    HW211152   4.627   1.459   3.710
 3710SOL     OW11153   4.385   1.790   4.677
 3710SOL    HW111154   4.339   1.878   4.664
 3710SOL    HW211155   4.484   1.802   4.670
 3711SOL     OW11156   4.583   0.956   4.585
 3711SOL    HW111157   4.637   0.887   4.633
 3711SOL    HW211158   4.551   1.025   4.651
 3712SOL     OW11159   4.807   0.984   3.811
 3712SOL    HW111160   4.784   1.037   3.729
 3712SOL    HW211161   4.888   0.928   3.792
 3713SOL     OW11162   3.803   1.240   4.377
 3713SOL    HW111163   3.802   1.193   4.465
 3713SOL    HW211164   3.885   1.212   4.326
 3714SOL     OW11165   4.152   0.424   4.244
 3714SOL    HW111166   4.182   0.352   4.182
 3714SOL    HW211167   4.113   0.384   4.327
 3715SOL     OW11168   4.041   0.547   5.004
 3715SOL    HW111169   4.079   0.488   5.076
 3715SOL    HW211170   4.081   0.521   4.916
 3716SOL     OW11171   4.536   1.586   4.411
 3716SOL    HW111172   4.568   1.596   4.317
 3716SOL    HW211173   4.457   1.524   4.413
 3717SOL     OW11174   4.725   0.034   4.878
 3717SOL    HW111175   4.662  -0.038   4.847
 3717SOL    HW211176   4.818  -0.002   4.878
 3718SOL     OW11177   4.494   1.330   4.025
 3718SOL    HW111178   4.448   1.243   4.042
 3718SOL    HW211179   4.585   1.327   4.066
 3719SOL     OW11180   4.342   1.567   5.008
 3719SOL    HW111181   4.337   1.649   5.065
 3719SOL    HW211182   4.431   1.564   4.963
 3720SOL     OW11183   5.076   0.052   3.892
 3720SOL    HW111184   5.111   0.011   3.808
 3720SOL    HW211185   4.986   0.014   3.912
 3721SOL     OW11186   3.763   1.077   4.024
 3721SOL    HW111187   3.862   1.066   4.015
 3721SOL    HW211188   3.723   0.991   4.056
 3722SOL     OW11189   4.599   1.646   4.061
 3722SOL    HW111190   4.522   1.611   4.007
 3722SOL    HW211191   4.567   1.717   4.123
 3723SOL     OW11192   3.954   2.490   0.113
 3723SOL    HW111193   3.861   2.488   0.150
 3723SOL    HW211194   3.955   2.451   0.021
 3724SOL     OW11195   3.949   2.137   0.996
 3724SOL    HW111196   3.984   2.120   1.088
 3724SOL    HW211197   3.861   2.092   0.984
 3725SOL     OW11198   3.743   2.230   0.647
 3725SOL    HW111199   3.661   2.273   0.686
 3725SOL    HW211200   3.715   2.157   0.584
 3726SOL     OW11201   4.293   3.137   1.165
 3726SOL    HW111202   4.200   3.130   1.128
 3726SOL    HW211203   4.304   3.226   1.209
 3727SOL     OW11204   5.279   3.373   0.703
 3727SOL    HW111205   5.222   3.357   0.784
 3727SOL    HW211206   5.220   3.383   0.623
 3728SOL     OW11207   4.859   2.565   0.717
 3728SOL    HW111208   4.916   2.643   0.692
 3728SOL    HW211209   4.799   2.591   0.793
 3729SOL     OW11210   4.492   3.006   1.023
 3729SOL    HW111211   4.414   3.023   1.083
 3729SOL    HW211212   4.526   3.093   0.987
 3730SOL     OW11213   4.574   2.660   1.823
 3730SOL    HW111214   4.570   2.736   1.888
 3730SOL    HW211215   4.596   2.696   1.732
 3731SOL     OW11216   4.409   2.874   0.665
 3731SOL    HW111217   4.478   2.858   0.735
 3731SOL    HW211218   4.336   2.931   0.703
 3732SOL     OW11219   4.410   3.023   1.803
 3732SOL    HW111220   4.470   3.102   1.817
 3732SOL    HW211221   4.324   3.054   1.762
 3733SOL     OW11222   4.059   3.297   1.061
 3733SOL    HW111223   3.981   3.266   1.008
 3733SOL    HW211224   4.117   3.355   1.004
 3734SOL     OW11225   4.162   2.254   1.499
 3734SOL    HW111226   4.244   2.198   1.508
 3734SOL    HW211227   4.081   2.196   1.503
 3735SOL     OW11228   3.955   3.575   0.483
 3735SOL    HW111229   3.989   3.652   0.537
 3735SOL    HW211230   3.999   3.575   0.393
 3736SOL     OW11231   4.851   3.203   1.690
 3736SOL    HW111232   4.898   3.203   1.778
 3736SOL    HW211233   4.803   3.116   1.679
 3737SOL     OW11234   3.954   3.296   0.538
 3737SOL    HW111235   3.928   3.392   0.538
 3737SOL    HW211236   3.883   3.242   0.583
 3738SOL     OW11237   3.964   2.953   0.886
 3738SOL    HW111238   3.978   2.869   0.938
 3738SOL    HW211239   3.909   3.017   0.941
 3739SOL     OW11240   4.344   3.648   1.439
 3739SOL    HW111241   4.252   3.631   1.474
 3739SOL    HW211242   4.372   3.740   1.465
 3740SOL     OW11243   4.330   2.826   0.123
 3740SOL    HW111244   4.337   2.910   0.069
 3740SOL    HW211245   4.376   2.839   0.211
 3741SOL     OW11246   3.846   2.505   0.563
 3741SOL    HW111247   3.801   2.417   0.580
 3741SOL    HW211248   3.845   2.559   0.647
 3742SOL     OW11249   3.751   3.458   0.117
 3742SOL    HW111250   3.732   3.362   0.138
 3742SOL    HW211251   3.718   3.516   0.192
 3743SOL     OW11252   5.413   2.784   0.612
 3743SOL    HW111253   5.508   2.755   0.620
 3743SOL    HW211254   5.405   2.849   0.537
 3744SOL     OW11255   3.837   2.599   1.597
 3744SOL    HW111256   3.925   2.586   1.642
 3744SOL    HW211257   3.824   2.696   1.575
 3745SOL     OW11258   4.337   3.227   0.726
 3745SOL    HW111259   4.288   3.140   0.735
 3745SOL    HW211260   4.314   3.270   0.639
 3746SOL     OW11261   5.017   3.090   1.423
 3746SOL    HW111262   5.054   3.017   1.365
 3746SOL    HW211263   5.069   3.095   1.508
 3747SOL     OW11264   4.533   1.866   0.502
 3747SOL    HW111265   4.573   1.957   0.493
 3747SOL    HW211266   4.433   1.874   0.508
 3748SOL     OW11267   3.921   2.838   1.264
 3748SOL    HW111268   4.010   2.793   1.250
 3748SOL    HW211269   3.848   2.773   1.245
 3749SOL     OW11270   4.911   3.654   1.616
 3749SOL    HW111271   4.935   3.714   1.540
 3749SOL    HW211272   4.918   3.559   1.586
 3750SOL     OW11273   4.041   2.113   1.801
 3750SOL    HW111274   4.112   2.184   1.807
 3750SOL    HW211275   3.953   2.152   1.829
 3751SOL     OW11276   4.322   2.591   0.270
 3751SOL    HW111277   4.346   2.660   0.202
 3751SOL    HW211278   4.244   2.624   0.324
 3752SOL     OW11279   5.005   2.207   0.944
 3752SOL    HW111280   4.919   2.157   0.931
 3752SOL    HW211281   5.067   2.153   1.000
 3753SOL     OW11282   4.531   2.467   1.465
 3753SOL    HW111283   4.484   2.464   1.554
 3753SOL    HW211284   4.480   2.412   1.399
 3754SOL     OW11285   5.118   2.331   1.674
 3754SOL    HW111286   5.098   2.374   1.762
 3754SOL    HW211287   5.196   2.269   1.683
 3755SOL     OW11288   4.697   2.752   1.572
 3755SOL    HW111289   4.743   2.668   1.543
 3755SOL    HW211290   4.641   2.786   1.497
 3756SOL     OW11291   4.715   2.272   1.242
 3756SOL    HW111292   4.638   2.306   1.296
 3756SOL    HW211293   4.681   2.221   1.163
 3757SOL     OW11294   4.765   2.563   0.429
 3757SOL    HW111295   4.791   2.559   0.525
 3757SOL    HW211296   4.680   2.512   0.415
 3758SOL     OW11297   3.800   2.673   0.789
 3758SOL    HW111298   3.899   2.661   0.798
 3758SOL    HW211299   3.776   2.768   0.810
 3759SOL     OW11300   3.854   3.683   1.571
 3759SOL    HW111301   3.844   3.668   1.670
 3759SOL    HW211302   3.768   3.719   1.535
 3760SOL     OW11303   4.589   2.210   0.195
 3760SOL    HW111304   4.648   2.273   0.146
 3760SOL    HW211305   4.608   2.116   0.166
 3761SOL     OW11306   5.086   3.006   0.545
 3761SOL    HW111307   5.169   2.977   0.497
 3761SOL    HW211308   5.037   3.073   0.489
 3762SOL     OW11309   4.274   2.058   0.885
 3762SOL    HW111310   4.269   2.053   0.985
 3762SOL    HW211311   4.276   2.154   0.856
 3763SOL     OW11312   4.732   3.318   0.477
 3763SOL    HW111313   4.686   3.390   0.425
 3763SOL    HW211314   4.728   3.338   0.575
 3764SOL     OW11315   4.075   3.663   0.853
 3764SOL    HW111316   4.125   3.577   0.859
 3764SOL    HW211317   4.140   3.740   0.850
 3765SOL     OW11318   4.951   3.412   1.506
 3765SOL    HW111319   4.957   3.335   1.570
 3765SOL    HW211320   4.899   3.386   1.426
 3766SOL     OW11321   4.045   2.805   0.242
 3766SOL    HW111322   4.127   2.844   0.200
 3766SOL    HW211323   4.018   2.723   0.193
 3767SOL     OW11324   4.185   3.128   1.727
 3767SOL    HW111325   4.135   3.129   1.641
 3767SOL    HW211326   4.122   3.110   1.803
 3768SOL     OW11327   4.835   3.638   0.237
 3768SOL    HW111328   4.775   3.576   0.287
 3768SOL    HW211329   4.866   3.594   0.152
 3769SOL     OW11330   3.926   2.147   1.498
 3769SOL    HW111331   3.846   2.207   1.485
 3769SOL    HW211332   3.916   2.098   1.584
 3770SOL     OW11333   5.356   3.239   0.081
 3770SOL    HW111334   5.324   3.333   0.071
 3770SOL    HW211335   5.280   3.176   0.069
 3771SOL     OW11336   4.188   3.605   0.323
 3771SOL    HW111337   4.221   3.644   0.409
 3771SOL    HW211338   4.264   3.598   0.258
 3772SOL     OW11339   3.973   3.647   1.241
 3772SOL    HW111340   4.030   3.582   1.291
 3772SOL    HW211341   3.957   3.614   1.148
 3773SOL     OW11342   4.664   3.560   0.904
 3773SOL    HW111343   4.744   3.503   0.925
 3773SOL    HW211344   4.615   3.520   0.827
 3774SOL     OW11345   4.106   2.562   0.480
 3774SOL    HW111346   4.151   2.472   0.477
 3774SOL    HW211347   4.012   2.551   0.513
 3775SOL     OW11348   4.505   2.126   1.749
 3775SOL    HW111349   4.572   2.065   1.792
 3775SOL    HW211350   4.432   2.145   1.814
 3776SOL     OW11351   4.612   3.376   1.195
 3776SOL    HW111352   4.589   3.351   1.101
 3776SOL    HW211353   4.673   3.307   1.234
 3777SOL     OW11354   5.075   2.452   1.433
 3777SOL    HW111355   5.103   2.409   1.518
 3777SOL    HW211356   5.100   2.548   1.434
 3778SOL     OW11357   4.527   3.264   0.924
 3778SOL    HW111358   4.617   3.278   0.882
 3778SOL    HW211359   4.456   3.266   0.853
 3779SOL     OW11360   4.646   2.365   0.899
 3779SOL    HW111361   4.621   2.356   0.803
 3779SOL    HW211362   4.694   2.283   0.930
 3780SOL     OW11363   4.263   1.926   0.512
 3780SOL    HW111364   4.182   1.927   0.570
 3780SOL    HW211365   4.266   2.009   0.457
 3781SOL     OW11366   5.158   3.050   0.041
 3781SOL    HW111367   5.190   2.974   0.098
 3781SOL    HW211368   5.066   3.077   0.071
 3782SOL     OW11369   4.659   2.098   0.480
 3782SOL    HW111370   4.611   2.139   0.402
 3782SOL    HW211371   4.758   2.096   0.461
 3783SOL     OW11372   4.800   2.545   1.464
 3783SOL    HW111373   4.720   2.484   1.467
 3783SOL    HW211374   4.881   2.492   1.440
 3784SOL     OW11375   4.951   3.432   0.793
 3784SOL    HW111376   4.972   3.506   0.728
 3784SOL    HW211377   5.019   3.432   0.866
 3785SOL     OW11378   4.183   3.014   0.741
 3785SOL    HW111379   4.112   2.987   0.806
 3785SOL    HW211380   4.157   2.986   0.648
 3786SOL     OW11381   4.995   3.659   0.591
 3786SOL    HW111382   5.039   3.723   0.527
 3786SOL    HW211383   4.945   3.711   0.661
 3787SOL     OW11384   4.756   2.411   0.016
 3787SOL    HW111385   4.715   2.493  -0.023
 3787SOL    HW211386   4.820   2.437   0.089
 3788SOL     OW11387   3.802   2.418   1.386
 3788SOL    HW111388   3.894   2.417   1.345
 3788SOL    HW211389   3.796   2.492   1.453
 3789SOL     OW11390   4.285   2.084   1.147
 3789SOL    HW111391   4.323   2.000   1.184
 3789SOL    HW211392   4.197   2.103   1.191
 3790SOL     OW11393   4.590   2.316   0.642
 3790SOL    HW111394   4.558   2.388   0.580
 3790SOL    HW211395   4.614   2.235   0.589
 3791SOL     OW11396   4.741   1.901   0.753
 3791SOL    HW111397   4.669   1.906   0.684
 3791SOL    HW211398   4.717   1.832   0.822
 3792SOL     OW11399   4.212   3.247   0.174
 3792SOL    HW111400   4.125   3.232   0.221
 3792SOL    HW211401   4.195   3.273   0.079
 3793SOL     OW11402   5.114   2.437   0.078
 3793SOL    HW111403   5.060   2.416   0.159
 3793SOL    HW211404   5.205   2.396   0.087
 3794SOL     OW11405   4.251   2.118   0.328
 3794SOL    HW111406   4.278   2.059   0.253
 3794SOL    HW211407   4.251   2.213   0.297
 3795SOL     OW11408   4.788   3.209   1.340
 3795SOL    HW111409   4.708   3.186   1.395
 3795SOL    HW211410   4.871   3.183   1.389
 3796SOL     OW11411   4.835   3.057   1.100
 3796SOL    HW111412   4.795   3.101   1.181
 3796SOL    HW211413   4.794   3.094   1.017
 3797SOL     OW11414   4.639   1.951   1.402
 3797SOL    HW111415   4.664   1.931   1.307
 3797SOL    HW211416   4.711   2.007   1.444
 3798SOL     OW11417   4.704   2.978   1.719
 3798SOL    HW111418   4.605   2.984   1.729
 3798SOL    HW211419   4.727   2.898   1.663
 3799SOL     OW11420   4.429   2.912   0.368
 3799SOL    HW111421   4.415   2.919   0.467
 3799SOL    HW211422   4.513   2.861   0.350
 3800SOL     OW11423   4.134   2.675   1.251
 3800SOL    HW111424   4.220   2.687   1.301
 3800SOL    HW211425   4.092   2.588   1.278
 3801SOL     OW11426   4.998   2.248   1.262
 3801SOL    HW111427   5.019   2.322   1.326
 3801SOL    HW211428   4.909   2.265   1.219
 3802SOL     OW11429   3.788   3.426   1.331
 3802SOL    HW111430   3.742   3.508   1.297
 3802SOL    HW211431   3.886   3.445   1.340
 3803SOL     OW11432   4.091   2.962   0.501
 3803SOL    HW111433   4.084   3.045   0.445
 3803SOL    HW211434   4.095   2.882   0.441
 3804SOL     OW11435   4.290   2.399   0.865
 3804SOL    HW111436   4.302   2.465   0.791
 3804SOL    HW211437   4.336   2.433   0.948
 3805SOL     OW11438   4.976   3.210   0.388
 3805SOL    HW111439   5.026   3.287   0.428
 3805SOL    HW211440   4.881   3.212   0.420
 3806SOL     OW11441   4.996   3.307   1.142
 3806SOL    HW111442   5.043   3.320   1.229
 3806SOL    HW211443   4.930   3.233   1.151
 3807SOL     OW11444   4.078   3.372   1.329
 3807SOL    HW111445   4.057   3.328   1.242
 3807SOL    HW211446   4.175   3.398   1.332
 3808SOL     OW11447   4.126   2.613   1.598
 3808SOL    HW111448   4.194   2.668   1.551
 3808SOL    HW211449   4.166   2.525   1.625
 3809SOL     OW11450   4.737   1.967   1.770
 3809SOL    HW111451   4.743   2.052   1.718
 3809SOL    HW211452   4.769   1.891   1.713
 3810SOL     OW11453   4.228   1.912   1.740
 3810SOL    HW111454   4.186   1.855   1.670
 3810SOL    HW211455   4.162   1.981   1.772
 3811SOL     OW11456   4.297   2.732   1.029
 3811SOL    HW111457   4.341   2.821   1.020
 3811SOL    HW211458   4.234   2.732   1.106
 3812SOL     OW11459   5.084   2.724   1.045
 3812SOL    HW111460   5.009   2.724   0.979
 3812SOL    HW211461   5.121   2.632   1.054
 3813SOL     OW11462   4.933   2.387   0.275
 3813SOL    HW111463   4.946   2.303   0.329
 3813SOL    HW211464   4.904   2.461   0.335
 3814SOL     OW11465   4.031   2.075   1.231
 3814SOL    HW111466   4.008   2.112   1.321
 3814SOL    HW211467   4.001   1.980   1.225
 3815SOL     OW11468   3.761   3.172   1.282
 3815SOL    HW111469   3.814   3.123   1.350
 3815SOL    HW211470   3.783   3.270   1.287
 3816SOL     OW11471   4.456   2.496   1.064
 3816SOL    HW111472   4.515   2.470   0.988
 3816SOL    HW211473   4.428   2.592   1.053
 3817SOL     OW11474   4.031   1.925   0.618
 3817SOL    HW111475   4.020   2.019   0.651
 3817SOL    HW211476   4.026   1.862   0.695
 3818SOL     OW11477   5.346   2.229   0.374
 3818SOL    HW111478   5.348   2.153   0.438
 3818SOL    HW211479   5.298   2.306   0.414
 3819SOL     OW11480   4.747   2.628   0.966
 3819SOL    HW111481   4.762   2.649   1.062
 3819SOL    HW211482   4.717   2.533   0.957
 3820SOL     OW11483   4.704   3.435   1.700
 3820SOL    HW111484   4.684   3.479   1.612
 3820SOL    HW211485   4.743   3.344   1.684
 3821SOL     OW11486   4.074   2.760   1.804
 3821SOL    HW111487   4.150   2.804   1.852
 3821SOL    HW211488   4.109   2.713   1.722
 3822SOL     OW11489   5.027   2.700   0.042
 3822SOL    HW111490   5.061   2.607   0.057
 3822SOL    HW211491   5.045   2.727  -0.053
 3823SOL     OW11492   4.792   3.195   0.849
 3823SOL    HW111493   4.799   3.111   0.794
 3823SOL    HW211494   4.854   3.264   0.813
 3824SOL     OW11495   4.043   2.672   0.949
 3824SOL    HW111496   4.136   2.708   0.954
 3824SOL    HW211497   4.037   2.587   1.001
 3825SOL     OW11498   4.063   2.371   1.006
 3825SOL    HW111499   4.011   2.288   0.989
 3825SOL    HW211500   4.140   2.376   0.942
 3826SOL     OW11501   4.862   2.242   1.678
 3826SOL    HW111502   4.817   2.305   1.742
 3826SOL    HW211503   4.955   2.273   1.661
 3827SOL     OW11504   4.884   2.069   1.477
 3827SOL    HW111505   4.884   2.133   1.554
 3827SOL    HW211506   4.912   2.117   1.394
 3828SOL     OW11507   3.812   3.663   0.927
 3828SOL    HW111508   3.770   3.577   0.900
 3828SOL    HW211509   3.906   3.666   0.893
 3829SOL     OW11510   4.228   3.430   0.910
 3829SOL    HW111511   4.294   3.504   0.919
 3829SOL    HW211512   4.272   3.351   0.868
 3830SOL     OW11513   4.726   2.658   1.238
 3830SOL    HW111514   4.767   2.626   1.324
 3830SOL    HW211515   4.630   2.631   1.235
 3831SOL     OW11516   3.764   2.406   1.114
 3831SOL    HW111517   3.849   2.373   1.073
 3831SOL    HW211518   3.777   2.421   1.212
 3832SOL     OW11519   3.913   2.382   1.722
 3832SOL    HW111520   3.972   2.342   1.652
 3832SOL    HW211521   3.855   2.453   1.681
 3833SOL     OW11522   5.093   2.812   1.660
 3833SOL    HW111523   5.132   2.901   1.680
 3833SOL    HW211524   5.103   2.792   1.563
 3834SOL     OW11525   4.539   2.434   0.325
 3834SOL    HW111526   4.546   2.345   0.279
 3834SOL    HW211527   4.445   2.468   0.317
 3835SOL     OW11528   3.976   3.426   1.744
 3835SOL    HW111529   3.946   3.483   1.820
 3835SOL    HW211530   3.969   3.329   1.770
 3836SOL     OW11531   4.395   2.326   1.269
 3836SOL    HW111532   4.361   2.237   1.239
 3836SOL    HW211533   4.421   2.380   1.189
 3837SOL     OW11534   4.654   3.540   1.465
 3837SOL    HW111535   4.630   3.522   1.370
 3837SOL    HW211536   4.684   3.634   1.475
 3838SOL     OW11537   4.197   2.362   0.191
 3838SOL    HW111538   4.258   2.442   0.195
 3838SOL    HW211539   4.102   2.393   0.198
 3839SOL     OW11540   3.883   2.999   1.466
 3839SOL    HW111541   3.905   2.938   1.542
 3839SOL    HW211542   3.893   2.950   1.380
 3840SOL     OW11543   5.071   2.921   1.234
 3840SOL    HW111544   5.095   2.858   1.160
 3840SOL    HW211545   4.981   2.961   1.216
 3841SOL     OW11546   5.026   2.717   0.309
 3841SOL    HW111547   4.940   2.686   0.351
 3841SOL    HW211548   5.022   2.703   0.210
 3842SOL     OW11549   4.976   3.593   1.128
 3842SOL    HW111550   5.060   3.598   1.074
 3842SOL    HW211551   4.953   3.497   1.146
 3843SOL     OW11552   3.807   3.120   1.022
 3843SOL    HW111553   3.802   3.119   1.122
 3843SOL    HW211554   3.724   3.079   0.984
 3844SOL     OW11555   4.412   3.524   1.716
 3844SOL    HW111556   4.356   3.605   1.725
 3844SOL    HW211557   4.464   3.528   1.630
 3845SOL     OW11558   4.627   1.948   0.133
 3845SOL    HW111559   4.678   1.949   0.047
 3845SOL    HW211560   4.683   1.906   0.204
 3846SOL     OW11561   5.112   3.435   0.477
 3846SOL    HW111562   5.179   3.447   0.403
 3846SOL    HW211563   5.072   3.524   0.500
 3847SOL     OW11564   3.854   3.656   1.851
 3847SOL    HW111565   3.813   3.582   1.904
 3847SOL    HW211566   3.918   3.707   1.909
 3848SOL     OW11567   5.004   2.789   0.672
 3848SOL    HW111568   5.064   2.708   0.674
 3848SOL    HW211569   5.044   2.858   0.612
 3849SOL     OW11570   4.554   3.135   1.422
 3849SOL    HW111571   4.549   3.168   1.517
 3849SOL    HW211572   4.468   3.154   1.376
 3850SOL     OW11573   4.396   3.478   0.154
 3850SOL    HW111574   4.405   3.488   0.055
 3850SOL    HW211575   4.356   3.389   0.175
 3851SOL     OW11576   3.987   2.188   0.720
 3851SOL    HW111577   3.908   2.239   0.686
 3851SOL    HW211578   3.978   2.173   0.818
 3852SOL     OW11579   4.918   3.474   0.031
 3852SOL    HW111580   4.924   3.381   0.068
 3852SOL    HW211581   4.859   3.474  -0.049
 3853SOL     OW11582   4.546   2.864   1.372
 3853SOL    HW111583   4.586   2.863   1.280
 3853SOL    HW211584   4.556   2.956   1.412
 3854SOL     OW11585   4.640   2.772   0.291
 3854SOL    HW111586   4.703   2.810   0.223
 3854SOL    HW211587   4.680   2.689   0.330
 3855SOL     OW11588   4.096   3.150   1.490
 3855SOL    HW111589   4.083   3.243   1.456
 3855SOL    HW211590   4.012   3.098   1.477
 3856SOL     OW11591   4.763   2.960   0.696
 3856SOL    HW111592   4.693   2.913   0.750
 3856SOL    HW211593   4.822   2.892   0.653
 3857SOL     OW11594   4.738   2.098   0.971
 3857SOL    HW111595   4.730   2.062   0.878
 3857SOL    HW211596   4.736   2.022   1.036
 3858SOL     OW11597   4.314   3.349   0.491
 3858SOL    HW111598   4.356   3.291   0.421
 3858SOL    HW211599   4.270   3.428   0.447
 3859SOL     OW11600   3.979   3.210   0.290
 3859SOL    HW111601   3.883   3.211   0.263
 3859SOL    HW211602   3.991   3.263   0.374
 3860SOL     OW11603   3.829   2.875   1.726
 3860SOL    HW111604   3.752   2.842   1.780
 3860SOL    HW211605   3.914   2.845   1.768
 3861SOL     OW11606   4.396   2.065   1.489
 3861SOL    HW111607   4.486   2.049   1.449
 3861SOL    HW211608   4.404   2.070   1.588
 3862SOL     OW11609   3.799   2.207   0.033
 3862SOL    HW111610   3.707   2.179   0.004
 3862SOL    HW211611   3.830   2.284  -0.023
 3863SOL     OW11612   5.164   2.718   1.398
 3863SOL    HW111613   5.107   2.770   1.335
 3863SOL    HW211614   5.260   2.730   1.374
 3864SOL     OW11615   3.796   2.028   0.318
 3864SOL    HW111616   3.779   2.111   0.264
 3864SOL    HW211617   3.886   1.991   0.296
 3865SOL     OW11618   4.907   3.197   0.119
 3865SOL    HW111619   4.808   3.186   0.121
 3865SOL    HW211620   4.941   3.212   0.212
 3866SOL     OW11621   4.337   2.704   1.431
 3866SOL    HW111622   4.393   2.785   1.414
 3866SOL    HW211623   4.396   2.624   1.434
 3867SOL     OW11624   4.440   2.427   1.708
 3867SOL    HW111625   4.459   2.492   1.782
 3867SOL    HW211626   4.500   2.347   1.717
 3868SOL     OW11627   5.174   3.082   1.633
 3868SOL    HW111628   5.165   3.072   1.732
 3868SOL    HW211629   5.270   3.075   1.607
 3869SOL     OW11630   4.114   3.603   1.560
 3869SOL    HW111631   4.023   3.644   1.558
 3869SOL    HW211632   4.107   3.509   1.592
 3870SOL     OW11633   4.949   2.187   0.449
 3870SOL    HW111634   5.014   2.113   0.438
 3870SOL    HW211635   4.969   2.237   0.533
 3871SOL     OW11636   4.318   2.607   0.652
 3871SOL    HW111637   4.368   2.692   0.633
 3871SOL    HW211638   4.230   2.609   0.604
 3872SOL     OW11639   4.583   3.236   0.016
 3872SOL    HW111640   4.537   3.251   0.104
 3872SOL    HW211641   4.627   3.321  -0.014
 3873SOL     OW11642   4.385   3.652   0.953
 3873SOL    HW111643   4.339   3.740   0.940
 3873SOL    HW211644   4.484   3.664   0.946
 3874SOL     OW11645   4.583   2.818   0.861
 3874SOL    HW111646   4.637   2.749   0.909
 3874SOL    HW211647   4.551   2.887   0.927
 3875SOL     OW11648   4.807   2.846   0.087
 3875SOL    HW111649   4.784   2.899   0.005
 3875SOL    HW211650   4.888   2.790   0.068
 3876SOL     OW11651   3.945   3.176   1.844
 3876SOL    HW111652   3.880   3.103   1.823
 3876SOL    HW211653   3.949   3.190   1.942
 3877SOL     OW11654   3.803   3.102   0.653
 3877SOL    HW111655   3.802   3.055   0.741
 3877SOL    HW211656   3.885   3.074   0.602
 3878SOL     OW11657   4.396   3.253   1.624
 3878SOL    HW111658   4.318   3.203   1.662
 3878SOL    HW211659   4.393   3.348   1.655
 3879SOL     OW11660   4.152   2.286   0.520
 3879SOL    HW111661   4.182   2.214   0.458
 3879SOL    HW211662   4.113   2.246   0.603
 3880SOL     OW11663   4.041   2.409   1.280
 3880SOL    HW111664   4.079   2.350   1.352
 3880SOL    HW211665   4.081   2.383   1.192
 3881SOL     OW11666   4.536   3.448   0.687
 3881SOL    HW111667   4.568   3.458   0.593
 3881SOL    HW211668   4.457   3.386   0.689
 3882SOL     OW11669   5.148   2.076   1.112
 3882SOL    HW111670   5.200   2.011   1.167
 3882SOL    HW211671   5.099   2.139   1.173
 3883SOL     OW11672   4.725   1.896   1.154
 3883SOL    HW111673   4.662   1.824   1.123
 3883SOL    HW211674   4.818   1.860   1.154
 3884SOL     OW11675   4.494   3.192   0.301
 3884SOL    HW111676   4.448   3.105   0.318
 3884SOL    HW211677   4.585   3.189   0.342
 3885SOL     OW11678   4.342   3.429   1.284
 3885SOL    HW111679   4.337   3.511   1.341
 3885SOL    HW211680   4.431   3.426   1.239
 3886SOL     OW11681   3.763   2.939   0.300
 3886SOL    HW111682   3.862   2.928   0.291
 3886SOL    HW211683   3.723   2.853   0.332
 3887SOL     OW11684   4.599   3.508   0.337
 3887SOL    HW111685   4.522   3.473   0.283
 3887SOL    HW211686   4.567   3.579   0.399
 3888SOL     OW11687   3.954   2.490   1.975
 3888SOL    HW111688   3.861   2.488   2.012
 3888SOL    HW211689   3.955   2.451   1.883
 3889SOL     OW11690   3.949   2.137   2.858
 3889SOL    HW111691   3.984   2.120   2.950
 3889SOL    HW211692   3.861   2.092   2.846
 3890SOL     OW11693   3.743   2.230   2.509
 3890SOL    HW111694   3.661   2.273   2.548
 3890SOL    HW211695   3.715   2.157   2.446
 3891SOL     OW11696   4.293   3.137   3.027
 3891SOL    HW111697   4.200   3.130   2.990
 3891SOL    HW211698   4.304   3.226   3.071
 3892SOL     OW11699   5.279   3.373   2.565
 3892SOL    HW111700   5.222   3.357   2.646
 3892SOL    HW211701   5.220   3.383   2.485
 3893SOL     OW11702   4.859   2.565   2.579
 3893SOL    HW111703   4.916   2.643   2.554
 3893SOL    HW211704   4.799   2.591   2.655
 3894SOL     OW11705   4.492   3.006   2.885
 3894SOL    HW111706   4.414   3.023   2.945
 3894SOL    HW211707   4.526   3.093   2.849
 3895SOL     OW11708   4.574   2.660   3.685
 3895SOL    HW111709   4.570   2.736   3.750
 3895SOL    HW211710   4.596   2.696   3.594
 3896SOL     OW11711   4.409   2.874   2.527
 3896SOL    HW111712   4.478   2.858   2.597
 3896SOL    HW211713   4.336   2.931   2.565
 3897SOL     OW11714   4.410   3.023   3.665
 3897SOL    HW111715   4.470   3.102   3.679
 3897SOL    HW211716   4.324   3.054   3.624
 3898SOL     OW11717   4.059   3.297   2.923
 3898SOL    HW111718   3.981   3.266   2.870
 3898SOL    HW211719   4.117   3.355   2.866
 3899SOL     OW11720   4.162   2.254   3.361
 3899SOL    HW111721   4.244   2.198   3.370
 3899SOL    HW211722   4.081   2.196   3.365
 3900SOL     OW11723   3.955   3.575   2.345
 3900SOL    HW111724   3.989   3.652   2.399
 3900SOL    HW211725   3.999   3.575   2.255
 3901SOL     OW11726   4.851   3.203   3.552
 3901SOL    HW111727   4.898   3.203   3.640
 3901SOL    HW211728   4.803   3.116   3.541
 3902SOL     OW11729   3.954   3.296   2.400
 3902SOL    HW111730   3.928   3.392   2.400
 3902SOL    HW211731   3.883   3.242   2.445
 3903SOL     OW11732   3.964   2.953   2.748
 3903SOL    HW111733   3.978   2.869   2.800
 3903SOL    HW211734   3.909   3.017   2.803
 3904SOL     OW11735   4.344   3.648   3.301
 3904SOL    HW111736   4.252   3.631   3.336
 3904SOL    HW211737   4.372   3.740   3.327
 3905SOL     OW11738   4.330   2.826   1.985
 3905SOL    HW111739   4.337   2.910   1.931
 3905SOL    HW211740   4.376   2.839   2.073
 3906SOL     OW11741   3.846   2.505   2.425
 3906SOL    HW111742   3.801   2.417   2.442
 3906SOL    HW211743   3.845   2.559   2.509
 3907SOL     OW11744   3.751   3.458   1.979
 3907SOL    HW111745   3.732   3.362   2.000
 3907SOL    HW211746   3.718   3.516   2.054
 3908SOL     OW11747   5.413   2.784   2.474
 3908SOL    HW111748   5.508   2.755   2.482
 3908SOL    HW211749   5.405   2.849   2.399
 3909SOL     OW11750   3.837   2.599   3.459
 3909SOL    HW111751   3.925   2.586   3.504
 3909SOL    HW211752   3.824   2.696   3.437
 3910SOL     OW11753   4.337   3.227   2.588
 3910SOL    HW111754   4.288   3.140   2.597
 3910SOL    HW211755   4.314   3.270   2.501
 3911SOL     OW11756   5.017   3.090   3.285
 3911SOL    HW111757   5.054   3.017   3.227
 3911SOL    HW211758   5.069   3.095   3.370
 3912SOL     OW11759   4.533   1.866   2.364
 3912SOL    HW111760   4.573   1.957   2.355
 3912SOL    HW211761   4.433   1.874   2.370
 3913SOL     OW11762   3.921   2.838   3.126
 3913SOL    HW111763   4.010   2.793   3.112
 3913SOL    HW211764   3.848   2.773   3.107
 3914SOL     OW11765   4.911   3.654   3.478
 3914SOL    HW111766   4.935   3.714   3.402
 3914SOL    HW211767   4.918   3.559   3.448
 3915SOL     OW11768   4.041   2.113   3.663
 3915SOL    HW111769   4.112   2.184   3.669
 3915SOL    HW211770   3.953   2.152   3.691
 3916SOL     OW11771   4.322   2.591   2.132
 3916SOL    HW111772   4.346   2.660   2.064
 3916SOL    HW211773   4.244   2.624   2.186
 3917SOL     OW11774   5.005   2.207   2.806
 3917SOL    HW111775   4.919   2.157   2.793
 3917SOL    HW211776   5.067   2.153   2.862
 3918SOL     OW11777   4.531   2.467   3.327
 3918SOL    HW111778   4.484   2.464   3.416
 3918SOL    HW211779   4.480   2.412   3.261
 3919SOL     OW11780   5.118   2.331   3.536
 3919SOL    HW111781   5.098   2.374   3.624
 3919SOL    HW211782   5.196   2.269   3.545
 3920SOL     OW11783   4.697   2.752   3.434
 3920SOL    HW111784   4.743   2.668   3.405
 3920SOL    HW211785   4.641   2.786   3.359
 3921SOL     OW11786   4.715   2.272   3.104
 3921SOL    HW111787   4.638   2.306   3.158
 3921SOL    HW211788   4.681   2.221   3.025
 3922SOL     OW11789   4.765   2.563   2.291
 3922SOL    HW111790   4.791   2.559   2.387
 3922SOL    HW211791   4.680   2.512   2.277
 3923SOL     OW11792   3.800   2.673   2.651
 3923SOL    HW111793   3.899   2.661   2.660
 3923SOL    HW211794   3.776   2.768   2.672
 3924SOL     OW11795   3.854   3.683   3.433
 3924SOL    HW111796   3.844   3.668   3.532
 3924SOL    HW211797   3.768   3.719   3.397
 3925SOL     OW11798   4.589   2.210   2.057
 3925SOL    HW111799   4.648   2.273   2.008
 3925SOL    HW211800   4.608   2.116   2.028
 3926SOL     OW11801   5.086   3.006   2.407
 3926SOL    HW111802   5.169   2.977   2.359
 3926SOL    HW211803   5.037   3.073   2.351
 3927SOL     OW11804   4.274   2.058   2.747
 3927SOL    HW111805   4.269   2.053   2.847
 3927SOL    HW211806   4.276   2.154   2.718
 3928SOL     OW11807   4.732   3.318   2.339
 3928SOL    HW111808   4.686   3.390   2.287
 3928SOL    HW211809   4.728   3.338   2.437
 3929SOL     OW11810   4.075   3.663   2.715
 3929SOL    HW111811   4.125   3.577   2.721
 3929SOL    HW211812   4.140   3.740   2.712
 3930SOL     OW11813   4.951   3.412   3.368
 3930SOL    HW111814   4.957   3.335   3.432
 3930SOL    HW211815   4.899   3.386   3.288
 3931SOL     OW11816   4.045   2.805   2.104
 3931SOL    HW111817   4.127   2.844   2.062
 3931SOL    HW211818   4.018   2.723   2.055
 3932SOL     OW11819   4.185   3.128   3.589
 3932SOL    HW111820   4.135   3.129   3.503
 3932SOL    HW211821   4.122   3.110   3.665
 3933SOL     OW11822   4.835   3.638   2.099
 3933SOL    HW111823   4.775   3.576   2.149
 3933SOL    HW211824   4.866   3.594   2.014
 3934SOL     OW11825   3.926   2.147   3.360
 3934SOL    HW111826   3.846   2.207   3.347
 3934SOL    HW211827   3.916   2.098   3.446
 3935SOL     OW11828   4.188   3.605   2.185
 3935SOL    HW111829   4.221   3.644   2.271
 3935SOL    HW211830   4.264   3.598   2.120
 3936SOL     OW11831   3.973   3.647   3.103
 3936SOL    HW111832   4.030   3.582   3.153
 3936SOL    HW211833   3.957   3.614   3.010
 3937SOL     OW11834   4.664   3.560   2.766
 3937SOL    HW111835   4.744   3.503   2.787
 3937SOL    HW211836   4.615   3.520   2.689
 3938SOL     OW11837   4.106   2.562   2.342
 3938SOL    HW111838   4.151   2.472   2.339
 3938SOL    HW211839   4.012   2.551   2.375
 3939SOL     OW11840   4.338   1.984   1.979
 3939SOL    HW111841   4.436   1.962   1.986
 3939SOL    HW211842   4.307   1.967   1.886
 3940SOL     OW11843   4.505   2.126   3.611
 3940SOL    HW111844   4.572   2.065   3.654
 3940SOL    HW211845   4.432   2.145   3.676
 3941SOL     OW11846   4.612   3.376   3.057
 3941SOL    HW111847   4.589   3.351   2.963
 3941SOL    HW211848   4.673   3.307   3.096
 3942SOL     OW11849   5.075   2.452   3.295
 3942SOL    HW111850   5.103   2.409   3.380
 3942SOL    HW211851   5.100   2.548   3.296
 3943SOL     OW11852   4.527   3.264   2.786
 3943SOL    HW111853   4.617   3.278   2.744
 3943SOL    HW211854   4.456   3.266   2.715
 3944SOL     OW11855   4.646   2.365   2.761
 3944SOL    HW111856   4.621   2.356   2.665
 3944SOL    HW211857   4.694   2.283   2.792
 3945SOL     OW11858   4.263   1.926   2.374
 3945SOL    HW111859   4.182   1.927   2.432
 3945SOL    HW211860   4.266   2.009   2.319
 3946SOL     OW11861   5.158   3.050   1.903
 3946SOL    HW111862   5.190   2.974   1.960
 3946SOL    HW211863   5.066   3.077   1.933
 3947SOL     OW11864   4.021   1.897   2.033
 3947SOL    HW111865   4.070   1.981   2.012
 3947SOL    HW211866   4.083   1.832   2.078
 3948SOL     OW11867   4.659   2.098   2.342
 3948SOL    HW111868   4.611   2.139   2.264
 3948SOL    HW211869   4.758   2.096   2.323
 3949SOL     OW11870   4.800   2.545   3.326
 3949SOL    HW111871   4.720   2.484   3.329
 3949SOL    HW211872   4.881   2.492   3.302
 3950SOL     OW11873   4.951   3.432   2.655
 3950SOL    HW111874   4.972   3.506   2.590
 3950SOL    HW211875   5.019   3.432   2.728
 3951SOL     OW11876   4.183   3.014   2.603
 3951SOL    HW111877   4.112   2.987   2.668
 3951SOL    HW211878   4.157   2.986   2.510
 3952SOL     OW11879   4.995   3.659   2.453
 3952SOL    HW111880   5.039   3.723   2.389
 3952SOL    HW211881   4.945   3.711   2.523
 3953SOL     OW11882   4.756   2.411   1.878
 3953SOL    HW111883   4.715   2.493   1.839
 3953SOL    HW211884   4.820   2.437   1.951
 3954SOL     OW11885   3.802   2.418   3.248
 3954SOL    HW111886   3.894   2.417   3.207
 3954SOL    HW211887   3.796   2.492   3.315
 3955SOL     OW11888   4.285   2.084   3.009
 3955SOL    HW111889   4.323   2.000   3.046
 3955SOL    HW211890   4.197   2.103   3.053
 3956SOL     OW11891   4.590   2.316   2.504
 3956SOL    HW111892   4.558   2.388   2.442
 3956SOL    HW211893   4.614   2.235   2.451
 3957SOL     OW11894   4.741   1.901   2.615
 3957SOL    HW111895   4.669   1.906   2.546
 3957SOL    HW211896   4.717   1.832   2.684
 3958SOL     OW11897   4.212   3.247   2.036
 3958SOL    HW111898   4.125   3.232   2.083
 3958SOL    HW211899   4.195   3.273   1.941
 3959SOL     OW11900   5.114   2.437   1.940
 3959SOL    HW111901   5.060   2.416   2.021
 3959SOL    HW211902   5.205   2.396   1.949
 3960SOL     OW11903   4.251   2.118   2.190
 3960SOL    HW111904   4.278   2.059   2.115
 3960SOL    HW211905   4.251   2.213   2.159
 3961SOL     OW11906   4.788   3.209   3.202
 3961SOL    HW111907   4.708   3.186   3.257
 3961SOL    HW211908   4.871   3.183   3.251
 3962SOL     OW11909   4.835   3.057   2.962
 3962SOL    HW111910   4.795   3.101   3.043
 3962SOL    HW211911   4.794   3.094   2.879
 3963SOL     OW11912   4.639   1.951   3.264
 3963SOL    HW111913   4.664   1.931   3.169
 3963SOL    HW211914   4.711   2.007   3.306
 3964SOL     OW11915   4.704   2.978   3.581
 3964SOL    HW111916   4.605   2.984   3.591
 3964SOL    HW211917   4.727   2.898   3.525
 3965SOL     OW11918   4.429   2.912   2.230
 3965SOL    HW111919   4.415   2.919   2.329
 3965SOL    HW211920   4.513   2.861   2.212
 3966SOL     OW11921   4.134   2.675   3.113
 3966SOL    HW111922   4.220   2.687   3.163
 3966SOL    HW211923   4.092   2.588   3.140
 3967SOL     OW11924   4.998   2.248   3.124
 3967SOL    HW111925   5.019   2.322   3.188
 3967SOL    HW211926   4.909   2.265   3.081
 3968SOL     OW11927   3.788   3.426   3.193
 3968SOL    HW111928   3.742   3.508   3.159
 3968SOL    HW211929   3.886   3.445   3.202
 3969SOL     OW11930   4.091   2.962   2.363
 3969SOL    HW111931   4.084   3.045   2.307
 3969SOL    HW211932   4.095   2.882   2.303
 3970SOL     OW11933   4.290   2.399   2.727
 3970SOL    HW111934   4.302   2.465   2.653
 3970SOL    HW211935   4.336   2.433   2.810
 3971SOL     OW11936   4.976   3.210   2.250
 3971SOL    HW111937   5.026   3.287   2.290
 3971SOL    HW211938   4.881   3.212   2.282
 3972SOL     OW11939   4.996   3.307   3.004
 3972SOL    HW111940   5.043   3.320   3.091
 3972SOL    HW211941   4.930   3.233   3.013
 3973SOL     OW11942   4.078   3.372   3.191
 3973SOL    HW111943   4.057   3.328   3.104
 3973SOL    HW211944   4.175   3.398   3.194
 3974SOL     OW11945   4.126   2.613   3.460
 3974SOL    HW111946   4.194   2.668   3.413
 3974SOL    HW211947   4.166   2.525   3.487
 3975SOL     OW11948   4.737   1.967   3.632
 3975SOL    HW111949   4.743   2.052   3.580
 3975SOL    HW211950   4.769   1.891   3.575
 3976SOL     OW11951   4.228   1.912   3.602
 3976SOL    HW111952   4.186   1.855   3.532
 3976SOL    HW211953   4.162   1.981   3.634
 3977SOL     OW11954   4.297   2.732   2.891
 3977SOL    HW111955   4.341   2.821   2.882
 3977SOL    HW211956   4.234   2.732   2.968
 3978SOL     OW11957   5.084   2.724   2.907
 3978SOL    HW111958   5.009   2.724   2.841
 3978SOL    HW211959   5.121   2.632   2.916
 3979SOL     OW11960   4.933   2.387   2.137
 3979SOL    HW111961   4.946   2.303   2.191
 3979SOL    HW211962   4.904   2.461   2.197
 3980SOL     OW11963   4.031   2.075   3.093
 3980SOL    HW111964   4.008   2.112   3.183
 3980SOL    HW211965   4.001   1.980   3.087
 3981SOL     OW11966   3.761   3.172   3.144
 3981SOL    HW111967   3.814   3.123   3.212
 3981SOL    HW211968   3.783   3.270   3.149
 3982SOL     OW11969   4.456   2.496   2.926
 3982SOL    HW111970   4.515   2.470   2.850
 3982SOL    HW211971   4.428   2.592   2.915
 3983SOL     OW11972   4.031   1.925   2.480
 3983SOL    HW111973   4.020   2.019   2.513
 3983SOL    HW211974   4.026   1.862   2.557
 3984SOL     OW11975   5.346   2.229   2.236
 3984SOL    HW111976   5.348   2.153   2.300
 3984SOL    HW211977   5.298   2.306   2.276
 3985SOL     OW11978   4.747   2.628   2.828
 3985SOL    HW111979   4.762   2.649   2.924
 3985SOL    HW211980   4.717   2.533   2.819
 3986SOL     OW11981   4.704   3.435   3.562
 3986SOL    HW111982   4.684   3.479   3.474
 3986SOL    HW211983   4.743   3.344   3.546
 3987SOL     OW11984   4.074   2.760   3.666
 3987SOL    HW111985   4.150   2.804   3.714
 3987SOL    HW211986   4.109   2.713   3.584
 3988SOL     OW11987   5.027   2.700   1.904
 3988SOL    HW111988   5.061   2.607   1.919
 3988SOL    HW211989   5.045   2.727   1.809
 3989SOL     OW11990   4.792   3.195   2.711
 3989SOL    HW111991   4.799   3.111   2.656
 3989SOL    HW211992   4.854   3.264   2.675
 3990SOL     OW11993   4.043   2.672   2.811
 3990SOL    HW111994   4.136   2.708   2.816
 3990SOL    HW211995   4.037   2.587   2.863
 3991SOL     OW11996   4.063   2.371   2.868
 3991SOL    HW111997   4.011   2.288   2.851
 3991SOL    HW211998   4.140   2.376   2.804
 3992SOL     OW11999   4.862   2.242   3.540
 3992SOL    HW112000   4.817   2.305   3.604
 3992SOL    HW212001   4.955   2.273   3.523
 3993SOL     OW12002   4.884   2.069   3.339
 3993SOL    HW112003   4.884   2.133   3.416
 3993SOL    HW212004   4.912   2.117   3.256
 3994SOL     OW12005   3.732   3.188   2.062
 3994SOL    HW112006   3.639   3.209   2.031
 3994SOL    HW212007   3.742   3.089   2.075
 3995SOL     OW12008   3.812   3.663   2.789
 3995SOL    HW112009   3.770   3.577   2.762
 3995SOL    HW212010   3.906   3.666   2.755
 3996SOL     OW12011   4.228   3.430   2.772
 3996SOL    HW112012   4.294   3.504   2.781
 3996SOL    HW212013   4.272   3.351   2.730
 3997SOL     OW12014   4.726   2.658   3.100
 3997SOL    HW112015   4.767   2.626   3.186
 3997SOL    HW212016   4.630   2.631   3.097
 3998SOL     OW12017   3.764   2.406   2.976
 3998SOL    HW112018   3.849   2.373   2.935
 3998SOL    HW212019   3.777   2.421   3.074
 3999SOL     OW12020   3.913   2.382   3.584
 3999SOL    HW112021   3.972   2.342   3.514
 3999SOL    HW212022   3.855   2.453   3.543
 4000SOL     OW12023   5.093   2.812   3.522
 4000SOL    HW112024   5.132   2.901   3.542
 4000SOL    HW212025   5.103   2.792   3.425
 4001SOL     OW12026   4.539   2.434   2.187
 4001SOL    HW112027   4.546   2.345   2.141
 4001SOL    HW212028   4.445   2.468   2.179
 4002SOL     OW12029   3.976   3.426   3.606
 4002SOL    HW112030   3.946   3.483   3.682
 4002SOL    HW212031   3.969   3.329   3.632
 4003SOL     OW12032   4.395   2.326   3.131
 4003SOL    HW112033   4.361   2.237   3.101
 4003SOL    HW212034   4.421   2.380   3.051
 4004SOL     OW12035   4.654   3.540   3.327
 4004SOL    HW112036   4.630   3.522   3.232
 4004SOL    HW212037   4.684   3.634   3.337
 4005SOL     OW12038   4.197   2.362   2.053
 4005SOL    HW112039   4.258   2.442   2.057
 4005SOL    HW212040   4.102   2.393   2.060
 4006SOL     OW12041   3.883   2.999   3.328
 4006SOL    HW112042   3.905   2.938   3.404
 4006SOL    HW212043   3.893   2.950   3.242
 4007SOL     OW12044   5.071   2.921   3.096
 4007SOL    HW112045   5.095   2.858   3.022
 4007SOL    HW212046   4.981   2.961   3.078
 4008SOL     OW12047   5.026   2.717   2.171
 4008SOL    HW112048   4.940   2.686   2.213
 4008SOL    HW212049   5.022   2.703   2.072
 4009SOL     OW12050   4.976   3.593   2.990
 4009SOL    HW112051   5.060   3.598   2.936
 4009SOL    HW212052   4.953   3.497   3.008
 4010SOL     OW12053   3.807   3.120   2.884
 4010SOL    HW112054   3.802   3.119   2.984
 4010SOL    HW212055   3.724   3.079   2.846
 4011SOL     OW12056   4.412   3.524   3.578
 4011SOL    HW112057   4.356   3.605   3.587
 4011SOL    HW212058   4.464   3.528   3.492
 4012SOL     OW12059   5.112   3.435   2.339
 4012SOL    HW112060   5.179   3.447   2.265
 4012SOL    HW212061   5.072   3.524   2.362
 4013SOL     OW12062   3.854   3.656   3.713
 4013SOL    HW112063   3.813   3.582   3.766
 4013SOL    HW212064   3.918   3.707   3.771
 4014SOL     OW12065   5.004   2.789   2.534
 4014SOL    HW112066   5.064   2.708   2.536
 4014SOL    HW212067   5.044   2.858   2.474
 4015SOL     OW12068   4.554   3.135   3.284
 4015SOL    HW112069   4.549   3.168   3.379
 4015SOL    HW212070   4.468   3.154   3.238
 4016SOL     OW12071   4.396   3.478   2.016
 4016SOL    HW112072   4.405   3.488   1.917
 4016SOL    HW212073   4.356   3.389   2.037
 4017SOL     OW12074   3.987   2.188   2.582
 4017SOL    HW112075   3.908   2.239   2.548
 4017SOL    HW212076   3.978   2.173   2.680
 4018SOL     OW12077   4.918   3.474   1.893
 4018SOL    HW112078   4.924   3.381   1.930
 4018SOL    HW212079   4.859   3.474   1.813
 4019SOL     OW12080   4.546   2.864   3.234
 4019SOL    HW112081   4.586   2.863   3.142
 4019SOL    HW212082   4.556   2.956   3.274
 4020SOL     OW12083   4.640   2.772   2.153
 4020SOL    HW112084   4.703   2.810   2.085
 4020SOL    HW212085   4.680   2.689   2.192
 4021SOL     OW12086   4.096   3.150   3.352
 4021SOL    HW112087   4.083   3.243   3.318
 4021SOL    HW212088   4.012   3.098   3.339
 4022SOL     OW12089   4.763   2.960   2.558
 4022SOL    HW112090   4.693   2.913   2.612
 4022SOL    HW212091   4.822   2.892   2.515
 4023SOL     OW12092   4.738   2.098   2.833
 4023SOL    HW112093   4.730   2.062   2.740
 4023SOL    HW212094   4.736   2.022   2.898
 4024SOL     OW12095   4.314   3.349   2.353
 4024SOL    HW112096   4.356   3.291   2.283
 4024SOL    HW212097   4.270   3.428   2.309
 4025SOL     OW12098   3.979   3.210   2.152
 4025SOL    HW112099   3.883   3.211   2.125
 4025SOL    HW212100   3.991   3.263   2.236
 4026SOL     OW12101   3.829   2.875   3.588
 4026SOL    HW112102   3.752   2.842   3.642
 4026SOL    HW212103   3.914   2.845   3.630
 4027SOL     OW12104   4.396   2.065   3.351
 4027SOL    HW112105   4.486   2.049   3.311
 4027SOL    HW212106   4.404   2.070   3.450
 4028SOL     OW12107   3.799   2.207   1.895
 4028SOL    HW112108   3.707   2.179   1.866
 4028SOL    HW212109   3.830   2.284   1.839
 4029SOL     OW12110   5.164   2.718   3.260
 4029SOL    HW112111   5.107   2.770   3.197
 4029SOL    HW212112   5.260   2.730   3.236
 4030SOL     OW12113   3.796   2.028   2.180
 4030SOL    HW112114   3.779   2.111   2.126
 4030SOL    HW212115   3.886   1.991   2.158
 4031SOL     OW12116   4.907   3.197   1.981
 4031SOL    HW112117   4.808   3.186   1.983
 4031SOL    HW212118   4.941   3.212   2.074
 4032SOL     OW12119   4.337   2.704   3.293
 4032SOL    HW112120   4.393   2.785   3.276
 4032SOL    HW212121   4.396   2.624   3.296
 4033SOL     OW12122   4.440   2.427   3.570
 4033SOL    HW112123   4.459   2.492   3.644
 4033SOL    HW212124   4.500   2.347   3.579
 4034SOL     OW12125   5.174   3.082   3.495
 4034SOL    HW112126   5.165   3.072   3.594
 4034SOL    HW212127   5.270   3.075   3.469
 4035SOL     OW12128   4.114   3.603   3.422
 4035SOL    HW112129   4.023   3.644   3.420
 4035SOL    HW212130   4.107   3.509   3.454
 4036SOL     OW12131   4.949   2.187   2.311
 4036SOL    HW112132   5.014   2.113   2.300
 4036SOL    HW212133   4.969   2.237   2.395
 4037SOL     OW12134   4.318   2.607   2.514
 4037SOL    HW112135   4.368   2.692   2.495
 4037SOL    HW212136   4.230   2.609   2.466
 4038SOL     OW12137   4.583   3.236   1.878
 4038SOL    HW112138   4.537   3.251   1.966
 4038SOL    HW212139   4.627   3.321   1.848
 4039SOL     OW12140   4.385   3.652   2.815
 4039SOL    HW112141   4.339   3.740   2.802
 4039SOL    HW212142   4.484   3.664   2.808
 4040SOL     OW12143   4.583   2.818   2.723
 4040SOL    HW112144   4.637   2.749   2.771
 4040SOL    HW212145   4.551   2.887   2.789
 4041SOL     OW12146   4.807   2.846   1.949
 4041SOL    HW112147   4.784   2.899   1.867
 4041SOL    HW212148   4.888   2.790   1.930
 4042SOL     OW12149   3.945   3.176   3.706
 4042SOL    HW112150   3.880   3.103   3.685
 4042SOL    HW212151   3.949   3.190   3.804
 4043SOL     OW12152   3.803   3.102   2.515
 4043SOL    HW112153   3.802   3.055   2.603
 4043SOL    HW212154   3.885   3.074   2.464
 4044SOL     OW12155   4.396   3.253   3.486
 4044SOL    HW112156   4.318   3.203   3.524
 4044SOL    HW212157   4.393   3.348   3.517
 4045SOL     OW12158   4.152   2.286   2.382
 4045SOL    HW112159   4.182   2.214   2.320
 4045SOL    HW212160   4.113   2.246   2.465
 4046SOL     OW12161   4.041   2.409   3.142
 4046SOL    HW112162   4.079   2.350   3.214
 4046SOL    HW212163   4.081   2.383   3.054
 4047SOL     OW12164   4.536   3.448   2.549
 4047SOL    HW112165   4.568   3.458   2.455
 4047SOL    HW212166   4.457   3.386   2.551
 4048SOL     OW12167   5.148   2.076   2.974
 4048SOL    HW112168   5.200   2.011   3.029
 4048SOL    HW212169   5.099   2.139   3.035
 4049SOL     OW12170   4.725   1.896   3.016
 4049SOL    HW112171   4.662   1.824   2.985
 4049SOL    HW212172   4.818   1.860   3.016
 4050SOL     OW12173   4.494   3.192   2.163
 4050SOL    HW112174   4.448   3.105   2.180
 4050SOL    HW212175   4.585   3.189   2.204
 4051SOL     OW12176   4.342   3.429   3.146
 4051SOL    HW112177   4.337   3.511   3.203
 4051SOL    HW212178   4.431   3.426   3.101
 4052SOL     OW12179   5.076   1.914   2.030
 4052SOL    HW112180   5.111   1.873   1.946
 4052SOL    HW212181   4.986   1.876   2.050
 4053SOL     OW12182   3.763   2.939   2.162
 4053SOL    HW112183   3.862   2.928   2.153
 4053SOL    HW212184   3.723   2.853   2.194
 4054SOL     OW12185   4.599   3.508   2.199
 4054SOL    HW112186   4.522   3.473   2.145
 4054SOL    HW212187   4.567   3.579   2.261
 4055SOL     OW12188   3.954   2.490   3.837
 4055SOL    HW112189   3.861   2.488   3.874
 4055SOL    HW212190   3.955   2.451   3.745
 4056SOL     OW12191   3.949   2.137   4.720
 4056SOL    HW112192   3.984   2.120   4.812
 4056SOL    HW212193   3.861   2.092   4.708
 4057SOL     OW12194   3.743   2.230   4.371
 4057SOL    HW112195   3.661   2.273   4.410
 4057SOL    HW212196   3.715   2.157   4.308
 4058SOL     OW12197   4.293   3.137   4.889
 4058SOL    HW112198   4.200   3.130   4.852
 4058SOL    HW212199   4.304   3.226   4.933
 4059SOL     OW12200   5.279   3.373   4.427
 4059SOL    HW112201   5.222   3.357   4.508
 4059SOL    HW212202   5.220   3.383   4.347
 4060SOL     OW12203   4.859   2.565   4.441
 4060SOL    HW112204   4.916   2.643   4.416
 4060SOL    HW212205   4.799   2.591   4.517
 4061SOL     OW12206   4.492   3.006   4.747
 4061SOL    HW112207   4.414   3.023   4.807
 4061SOL    HW212208   4.526   3.093   4.711
 4062SOL     OW12209   4.409   2.874   4.389
 4062SOL    HW112210   4.478   2.858   4.459
 4062SOL    HW212211   4.336   2.931   4.427
 4063SOL     OW12212   4.059   3.297   4.785
 4063SOL    HW112213   3.981   3.266   4.732
 4063SOL    HW212214   4.117   3.355   4.728
 4064SOL     OW12215   4.162   2.254   5.223
 4064SOL    HW112216   4.244   2.198   5.232
 4064SOL    HW212217   4.081   2.196   5.227
 4065SOL     OW12218   3.955   3.575   4.207
 4065SOL    HW112219   3.989   3.652   4.261
 4065SOL    HW212220   3.999   3.575   4.117
 4066SOL     OW12221   3.954   3.296   4.262
 4066SOL    HW112222   3.928   3.392   4.262
 4066SOL    HW212223   3.883   3.242   4.307
 4067SOL     OW12224   3.964   2.953   4.610
 4067SOL    HW112225   3.978   2.869   4.662
 4067SOL    HW212226   3.909   3.017   4.665
 4068SOL     OW12227   4.344   3.648   5.163
 4068SOL    HW112228   4.252   3.631   5.198
 4068SOL    HW212229   4.372   3.740   5.189
 4069SOL     OW12230   4.330   2.826   3.847
 4069SOL    HW112231   4.337   2.910   3.793
 4069SOL    HW212232   4.376   2.839   3.935
 4070SOL     OW12233   5.318   1.976   5.204
 4070SOL    HW112234   5.300   2.043   5.132
 4070SOL    HW212235   5.315   2.022   5.293
 4071SOL     OW12236   3.846   2.505   4.287
 4071SOL    HW112237   3.801   2.417   4.304
 4071SOL    HW212238   3.845   2.559   4.371
 4072SOL     OW12239   3.751   3.458   3.841
 4072SOL    HW112240   3.732   3.362   3.862
 4072SOL    HW212241   3.718   3.516   3.916
 4073SOL     OW12242   5.413   2.784   4.336
 4073SOL    HW112243   5.508   2.755   4.344
 4073SOL    HW212244   5.405   2.849   4.261
 4074SOL     OW12245   4.337   3.227   4.450
 4074SOL    HW112246   4.288   3.140   4.459
 4074SOL    HW212247   4.314   3.270   4.363
 4075SOL     OW12248   4.533   1.866   4.226
 4075SOL    HW112249   4.573   1.957   4.217
 4075SOL    HW212250   4.433   1.874   4.232
 4076SOL     OW12251   3.921   2.838   4.988
 4076SOL    HW112252   4.010   2.793   4.974
 4076SOL    HW212253   3.848   2.773   4.969
 4077SOL     OW12254   4.322   2.591   3.994
 4077SOL    HW112255   4.346   2.660   3.926
 4077SOL    HW212256   4.244   2.624   4.048
 4078SOL     OW12257   5.005   2.207   4.668
 4078SOL    HW112258   4.919   2.157   4.655
 4078SOL    HW212259   5.067   2.153   4.724
 4079SOL     OW12260   4.531   2.467   5.189
 4079SOL    HW112261   4.484   2.464   5.278
 4079SOL    HW212262   4.480   2.412   5.123
 4080SOL     OW12263   4.715   2.272   4.966
 4080SOL    HW112264   4.638   2.306   5.020
 4080SOL    HW212265   4.681   2.221   4.887
 4081SOL     OW12266   4.765   2.563   4.153
 4081SOL    HW112267   4.791   2.559   4.249
 4081SOL    HW212268   4.680   2.512   4.139
 4082SOL     OW12269   3.800   2.673   4.513
 4082SOL    HW112270   3.899   2.661   4.522
 4082SOL    HW212271   3.776   2.768   4.534
 4083SOL     OW12272   3.854   3.683   5.295
 4083SOL    HW112273   3.844   3.668   5.394
 4083SOL    HW212274   3.768   3.719   5.259
 4084SOL     OW12275   4.589   2.210   3.919
 4084SOL    HW112276   4.648   2.273   3.870
 4084SOL    HW212277   4.608   2.116   3.890
 4085SOL     OW12278   5.086   3.006   4.269
 4085SOL    HW112279   5.169   2.977   4.221
 4085SOL    HW212280   5.037   3.073   4.213
 4086SOL     OW12281   4.274   2.058   4.609
 4086SOL    HW112282   4.269   2.053   4.709
 4086SOL    HW212283   4.276   2.154   4.580
 4087SOL     OW12284   4.732   3.318   4.201
 4087SOL    HW112285   4.686   3.390   4.149
 4087SOL    HW212286   4.728   3.338   4.299
 4088SOL     OW12287   4.075   3.663   4.577
 4088SOL    HW112288   4.125   3.577   4.583
 4088SOL    HW212289   4.140   3.740   4.574
 4089SOL     OW12290   4.045   2.805   3.966
 4089SOL    HW112291   4.127   2.844   3.924
 4089SOL    HW212292   4.018   2.723   3.917
 4090SOL     OW12293   4.835   3.638   3.961
 4090SOL    HW112294   4.775   3.576   4.011
 4090SOL    HW212295   4.866   3.594   3.876
 4091SOL     OW12296   4.188   3.605   4.047
 4091SOL    HW112297   4.221   3.644   4.133
 4091SOL    HW212298   4.264   3.598   3.982
 4092SOL     OW12299   3.973   3.647   4.965
 4092SOL    HW112300   4.030   3.582   5.015
 4092SOL    HW212301   3.957   3.614   4.872
 4093SOL     OW12302   4.664   3.560   4.628
 4093SOL    HW112303   4.744   3.503   4.649
 4093SOL    HW212304   4.615   3.520   4.551
 4094SOL     OW12305   4.106   2.562   4.204
 4094SOL    HW112306   4.151   2.472   4.201
 4094SOL    HW212307   4.012   2.551   4.237
 4095SOL     OW12308   4.338   1.984   3.841
 4095SOL    HW112309   4.436   1.962   3.848
 4095SOL    HW212310   4.307   1.967   3.748
 4096SOL     OW12311   4.612   3.376   4.919
 4096SOL    HW112312   4.589   3.351   4.825
 4096SOL    HW212313   4.673   3.307   4.958
 4097SOL     OW12314   4.527   3.264   4.648
 4097SOL    HW112315   4.617   3.278   4.606
 4097SOL    HW212316   4.456   3.266   4.577
 4098SOL     OW12317   4.646   2.365   4.623
 4098SOL    HW112318   4.621   2.356   4.527
 4098SOL    HW212319   4.694   2.283   4.654
 4099SOL     OW12320   4.263   1.926   4.236
 4099SOL    HW112321   4.182   1.927   4.294
 4099SOL    HW212322   4.266   2.009   4.181
 4100SOL     OW12323   5.158   3.050   3.765
 4100SOL    HW112324   5.190   2.974   3.822
 4100SOL    HW212325   5.066   3.077   3.795
 4101SOL     OW12326   4.021   1.897   3.895
 4101SOL    HW112327   4.070   1.981   3.874
 4101SOL    HW212328   4.083   1.832   3.940
 4102SOL     OW12329   4.659   2.098   4.204
 4102SOL    HW112330   4.611   2.139   4.126
 4102SOL    HW212331   4.758   2.096   4.185
 4103SOL     OW12332   4.951   3.432   4.517
 4103SOL    HW112333   4.972   3.506   4.452
 4103SOL    HW212334   5.019   3.432   4.590
 4104SOL     OW12335   4.183   3.014   4.465
 4104SOL    HW112336   4.112   2.987   4.530
 4104SOL    HW212337   4.157   2.986   4.372
 4105SOL     OW12338   4.995   3.659   4.315
 4105SOL    HW112339   5.039   3.723   4.251
 4105SOL    HW212340   4.945   3.711   4.385
 4106SOL     OW12341   4.756   2.411   3.740
 4106SOL    HW112342   4.715   2.493   3.701
 4106SOL    HW212343   4.820   2.437   3.813
 4107SOL     OW12344   4.285   2.084   4.871
 4107SOL    HW112345   4.323   2.000   4.908
 4107SOL    HW212346   4.197   2.103   4.915
 4108SOL     OW12347   4.590   2.316   4.366
 4108SOL    HW112348   4.558   2.388   4.304
 4108SOL    HW212349   4.614   2.235   4.313
 4109SOL     OW12350   4.741   1.901   4.477
 4109SOL    HW112351   4.669   1.906   4.408
 4109SOL    HW212352   4.717   1.832   4.546
 4110SOL     OW12353   4.212   3.247   3.898
 4110SOL    HW112354   4.125   3.232   3.945
 4110SOL    HW212355   4.195   3.273   3.803
 4111SOL     OW12356   5.114   2.437   3.802
 4111SOL    HW112357   5.060   2.416   3.883
 4111SOL    HW212358   5.205   2.396   3.811
 4112SOL     OW12359   4.251   2.118   4.052
 4112SOL    HW112360   4.278   2.059   3.977
 4112SOL    HW212361   4.251   2.213   4.021
 4113SOL     OW12362   4.788   3.209   5.064
 4113SOL    HW112363   4.708   3.186   5.119
 4113SOL    HW212364   4.871   3.183   5.113
 4114SOL     OW12365   4.835   3.057   4.824
 4114SOL    HW112366   4.795   3.101   4.905
 4114SOL    HW212367   4.794   3.094   4.741
 4115SOL     OW12368   4.429   2.912   4.092
 4115SOL    HW112369   4.415   2.919   4.191
 4115SOL    HW212370   4.513   2.861   4.074
 4116SOL     OW12371   4.134   2.675   4.975
 4116SOL    HW112372   4.220   2.687   5.025
 4116SOL    HW212373   4.092   2.588   5.002
 4117SOL     OW12374   4.998   2.248   4.986
 4117SOL    HW112375   5.019   2.322   5.050
 4117SOL    HW212376   4.909   2.265   4.943
 4118SOL     OW12377   3.788   3.426   5.055
 4118SOL    HW112378   3.742   3.508   5.021
 4118SOL    HW212379   3.886   3.445   5.064
 4119SOL     OW12380   4.091   2.962   4.225
 4119SOL    HW112381   4.084   3.045   4.169
 4119SOL    HW212382   4.095   2.882   4.165
 4120SOL     OW12383   4.290   2.399   4.589
 4120SOL    HW112384   4.302   2.465   4.515
 4120SOL    HW212385   4.336   2.433   4.672
 4121SOL     OW12386   4.976   3.210   4.112
 4121SOL    HW112387   5.026   3.287   4.152
 4121SOL    HW212388   4.881   3.212   4.144
 4122SOL     OW12389   4.996   3.307   4.866
 4122SOL    HW112390   5.043   3.320   4.953
 4122SOL    HW212391   4.930   3.233   4.875
 4123SOL     OW12392   4.078   3.372   5.053
 4123SOL    HW112393   4.057   3.328   4.966
 4123SOL    HW212394   4.175   3.398   5.056
 4124SOL     OW12395   4.228   1.912   5.464
 4124SOL    HW112396   4.186   1.855   5.394
 4124SOL    HW212397   4.162   1.981   5.496
 4125SOL     OW12398   4.297   2.732   4.753
 4125SOL    HW112399   4.341   2.821   4.744
 4125SOL    HW212400   4.234   2.732   4.830
 4126SOL     OW12401   5.084   2.724   4.769
 4126SOL    HW112402   5.009   2.724   4.703
 4126SOL    HW212403   5.121   2.632   4.778
 4127SOL     OW12404   4.933   2.387   3.999
 4127SOL    HW112405   4.946   2.303   4.053
 4127SOL    HW212406   4.904   2.461   4.059
 4128SOL     OW12407   4.031   2.075   4.955
 4128SOL    HW112408   4.008   2.112   5.045
 4128SOL    HW212409   4.001   1.980   4.949
 4129SOL     OW12410   3.761   3.172   5.006
 4129SOL    HW112411   3.814   3.123   5.074
 4129SOL    HW212412   3.783   3.270   5.011
 4130SOL     OW12413   4.456   2.496   4.788
 4130SOL    HW112414   4.515   2.470   4.712
 4130SOL    HW212415   4.428   2.592   4.777
 4131SOL     OW12416   4.031   1.925   4.342
 4131SOL    HW112417   4.020   2.019   4.375
 4131SOL    HW212418   4.026   1.862   4.419
 4132SOL     OW12419   5.346   2.229   4.098
 4132SOL    HW112420   5.348   2.153   4.162
 4132SOL    HW212421   5.298   2.306   4.138
 4133SOL     OW12422   4.747   2.628   4.690
 4133SOL    HW112423   4.762   2.649   4.786
 4133SOL    HW212424   4.717   2.533   4.681
 4134SOL     OW12425   5.027   2.700   3.766
 4134SOL    HW112426   5.061   2.607   3.781
 4134SOL    HW212427   5.045   2.727   3.671
 4135SOL     OW12428   4.792   3.195   4.573
 4135SOL    HW112429   4.799   3.111   4.518
 4135SOL    HW212430   4.854   3.264   4.537
 4136SOL     OW12431   4.043   2.672   4.673
 4136SOL    HW112432   4.136   2.708   4.678
 4136SOL    HW212433   4.037   2.587   4.725
 4137SOL     OW12434   4.063   2.371   4.730
 4137SOL    HW112435   4.011   2.288   4.713
 4137SOL    HW212436   4.140   2.376   4.666
 4138SOL     OW12437   4.884   2.069   5.201
 4138SOL    HW112438   4.884   2.133   5.278
 4138SOL    HW212439   4.912   2.117   5.118
 4139SOL     OW12440   3.732   3.188   3.924
 4139SOL    HW112441   3.639   3.209   3.893
 4139SOL    HW212442   3.742   3.089   3.937
 4140SOL     OW12443   3.812   3.663   4.651
 4140SOL    HW112444   3.770   3.577   4.624
 4140SOL    HW212445   3.906   3.666   4.617
 4141SOL     OW12446   4.228   3.430   4.634
 4141SOL    HW112447   4.294   3.504   4.643
 4141SOL    HW212448   4.272   3.351   4.592
 4142SOL     OW12449   4.726   2.658   4.962
 4142SOL    HW112450   4.767   2.626   5.048
 4142SOL    HW212451   4.630   2.631   4.959
 4143SOL     OW12452   3.764   2.406   4.838
 4143SOL    HW112453   3.849   2.373   4.797
 4143SOL    HW212454   3.777   2.421   4.936
 4144SOL     OW12455   4.539   2.434   4.049
 4144SOL    HW112456   4.546   2.345   4.003
 4144SOL    HW212457   4.445   2.468   4.041
 4145SOL     OW12458   4.395   2.326   4.993
 4145SOL    HW112459   4.361   2.237   4.963
 4145SOL    HW212460   4.421   2.380   4.913
 4146SOL     OW12461   4.654   3.540   5.189
 4146SOL    HW112462   4.630   3.522   5.094
 4146SOL    HW212463   4.684   3.634   5.199
 4147SOL     OW12464   4.197   2.362   3.915
 4147SOL    HW112465   4.258   2.442   3.919
 4147SOL    HW212466   4.102   2.393   3.922
 4148SOL     OW12467   3.883   2.999   5.190
 4148SOL    HW112468   3.905   2.938   5.266
 4148SOL    HW212469   3.893   2.950   5.104
 4149SOL     OW12470   5.071   2.921   4.958
 4149SOL    HW112471   5.095   2.858   4.884
 4149SOL    HW212472   4.981   2.961   4.940
 4150SOL     OW12473   5.026   2.717   4.033
 4150SOL    HW112474   4.940   2.686   4.075
 4150SOL    HW212475   5.022   2.703   3.934
 4151SOL     OW12476   4.976   3.593   4.852
 4151SOL    HW112477   5.060   3.598   4.798
 4151SOL    HW212478   4.953   3.497   4.870
 4152SOL     OW12479   3.807   3.120   4.746
 4152SOL    HW112480   3.802   3.119   4.846
 4152SOL    HW212481   3.724   3.079   4.708
 4153SOL     OW12482   5.112   3.435   4.201
 4153SOL    HW112483   5.179   3.447   4.127
 4153SOL    HW212484   5.072   3.524   4.224
 4154SOL     OW12485   5.004   2.789   4.396
 4154SOL    HW112486   5.064   2.708   4.398
 4154SOL    HW212487   5.044   2.858   4.336
 4155SOL     OW12488   4.396   3.478   3.878
 4155SOL    HW112489   4.405   3.488   3.779
 4155SOL    HW212490   4.356   3.389   3.899
 4156SOL     OW12491   3.987   2.188   4.444
 4156SOL    HW112492   3.908   2.239   4.410
 4156SOL    HW212493   3.978   2.173   4.542
 4157SOL     OW12494   4.918   3.474   3.755
 4157SOL    HW112495   4.924   3.381   3.792
 4157SOL    HW212496   4.859   3.474   3.675
 4158SOL     OW12497   4.546   2.864   5.096
 4158SOL    HW112498   4.586   2.863   5.004
 4158SOL    HW212499   4.556   2.956   5.136
 4159SOL     OW12500   4.640   2.772   4.015
 4159SOL    HW112501   4.703   2.810   3.947
 4159SOL    HW212502   4.680   2.689   4.054
 4160SOL     OW12503   4.096   3.150   5.214
 4160SOL    HW112504   4.083   3.243   5.180
 4160SOL    HW212505   4.012   3.098   5.201
 4161SOL     OW12506   4.763   2.960   4.420
 4161SOL    HW112507   4.693   2.913   4.474
 4161SOL    HW212508   4.822   2.892   4.377
 4162SOL     OW12509   4.738   2.098   4.695
 4162SOL    HW112510   4.730   2.062   4.602
 4162SOL    HW212511   4.736   2.022   4.760
 4163SOL     OW12512   4.314   3.349   4.215
 4163SOL    HW112513   4.356   3.291   4.145
 4163SOL    HW212514   4.270   3.428   4.171
 4164SOL     OW12515   3.979   3.210   4.014
 4164SOL    HW112516   3.883   3.211   3.987
 4164SOL    HW212517   3.991   3.263   4.098
 4165SOL     OW12518   4.396   2.065   5.213
 4165SOL    HW112519   4.486   2.049   5.173
 4165SOL    HW212520   4.404   2.070   5.312
 4166SOL     OW12521   3.799   2.207   3.757
 4166SOL    HW112522   3.707   2.179   3.728
 4166SOL    HW212523   3.830   2.284   3.701
 4167SOL     OW12524   3.796   2.028   4.042
 4167SOL    HW112525   3.779   2.111   3.988
 4167SOL    HW212526   3.886   1.991   4.020
 4168SOL     OW12527   4.907   3.197   3.843
 4168SOL    HW112528   4.808   3.186   3.845
 4168SOL    HW212529   4.941   3.212   3.936
 4169SOL     OW12530   4.337   2.704   5.155
 4169SOL    HW112531   4.393   2.785   5.138
 4169SOL    HW212532   4.396   2.624   5.158
 4170SOL     OW12533   4.114   3.603   5.284
 4170SOL    HW112534   4.023   3.644   5.282
 4170SOL    HW212535   4.107   3.509   5.316
 4171SOL     OW12536   4.949   2.187   4.173
 4171SOL    HW112537   5.014   2.113   4.162
 4171SOL    HW212538   4.969   2.237   4.257
 4172SOL     OW12539   4.318   2.607   4.376
 4172SOL    HW112540   4.368   2.692   4.357
 4172SOL    HW212541   4.230   2.609   4.328
 4173SOL     OW12542   4.583   3.236   3.740
 4173SOL    HW112543   4.537   3.251   3.828
 4173SOL    HW212544   4.627   3.321   3.710
 4174SOL     OW12545   4.385   3.652   4.677
 4174SOL    HW112546   4.339   3.740   4.664
 4174SOL    HW212547   4.484   3.664   4.670
 4175SOL     OW12548   4.583   2.818   4.585
 4175SOL    HW112549   4.637   2.749   4.633
 4175SOL    HW212550   4.551   2.887   4.651
 4176SOL     OW12551   4.807   2.846   3.811
 4176SOL    HW112552   4.784   2.899   3.729
 4176SOL    HW212553   4.888   2.790   3.792
 4177SOL     OW12554   3.803   3.102   4.377
 4177SOL    HW112555   3.802   3.055   4.465
 4177SOL    HW212556   3.885   3.074   4.326
 4178SOL     OW12557   4.152   2.286   4.244
 4178SOL    HW112558   4.182   2.214   4.182
 4178SOL    HW212559   4.113   2.246   4.327
 4179SOL     OW12560   4.041   2.409   5.004
 4179SOL    HW112561   4.079   2.350   5.076
 4179SOL    HW212562   4.081   2.383   4.916
 4180SOL     OW12563   4.536   3.448   4.411
 4180SOL    HW112564   4.568   3.458   4.317
 4180SOL    HW212565   4.457   3.386   4.413
 4181SOL     OW12566   5.148   2.076   4.836
 4181SOL    HW112567   5.200   2.011   4.891
 4181SOL    HW212568   5.099   2.139   4.897
 4182SOL     OW12569   4.725   1.896   4.878
 4182SOL    HW112570   4.662   1.824   4.847
 4182SOL    HW212571   4.818   1.860   4.878
 4183SOL     OW12572   4.494   3.192   4.025
 4183SOL    HW112573   4.448   3.105   4.042
 4183SOL    HW212574   4.585   3.189   4.066
 4184SOL     OW12575   4.342   3.429   5.008
 4184SOL    HW112576   4.337   3.511   5.065
 4184SOL    HW212577   4.431   3.426   4.963
 4185SOL     OW12578   5.076   1.914   3.892
 4185SOL    HW112579   5.111   1.873   3.808
 4185SOL    HW212580   4.986   1.876   3.912
 4186SOL     OW12581   3.763   2.939   4.024
 4186SOL    HW112582   3.862   2.928   4.015
 4186SOL    HW212583   3.723   2.853   4.056
 4187SOL     OW12584   4.599   3.508   4.061
 4187SOL    HW112585   4.522   3.473   4.007
 4187SOL    HW212586   4.567   3.579   4.123
 4188SOL     OW12587   3.954   4.352   0.113
 4188SOL    HW112588   3.861   4.350   0.150
 4188SOL    HW212589   3.955   4.313   0.021
 4189SOL     OW12590   3.949   3.999   0.996
 4189SOL    HW112591   3.984   3.982   1.088
 4189SOL    HW212592   3.861   3.954   0.984
 4190SOL     OW12593   3.743   4.092   0.647
 4190SOL    HW112594   3.661   4.135   0.686
 4190SOL    HW212595   3.715   4.019   0.584
 4191SOL     OW12596   4.293   4.999   1.165
 4191SOL    HW112597   4.200   4.992   1.128
 4191SOL    HW212598   4.304   5.088   1.209
 4192SOL     OW12599   5.279   5.235   0.703
 4192SOL    HW112600   5.222   5.219   0.784
 4192SOL    HW212601   5.220   5.245   0.623
 4193SOL     OW12602   4.859   4.427   0.717
 4193SOL    HW112603   4.916   4.505   0.692
 4193SOL    HW212604   4.799   4.453   0.793
 4194SOL     OW12605   4.492   4.868   1.023
 4194SOL    HW112606   4.414   4.885   1.083
 4194SOL    HW212607   4.526   4.955   0.987
 4195SOL     OW12608   4.574   4.522   1.823
 4195SOL    HW112609   4.570   4.598   1.888
 4195SOL    HW212610   4.596   4.558   1.732
 4196SOL     OW12611   4.409   4.736   0.665
 4196SOL    HW112612   4.478   4.720   0.735
 4196SOL    HW212613   4.336   4.793   0.703
 4197SOL     OW12614   4.410   4.885   1.803
 4197SOL    HW112615   4.470   4.964   1.817
 4197SOL    HW212616   4.324   4.916   1.762
 4198SOL     OW12617   4.059   5.159   1.061
 4198SOL    HW112618   3.981   5.128   1.008
 4198SOL    HW212619   4.117   5.217   1.004
 4199SOL     OW12620   4.162   4.116   1.499
 4199SOL    HW112621   4.244   4.060   1.508
 4199SOL    HW212622   4.081   4.058   1.503
 4200SOL     OW12623   3.955   5.437   0.483
 4200SOL    HW112624   3.989   5.514   0.537
 4200SOL    HW212625   3.999   5.437   0.393
 4201SOL     OW12626   4.851   5.065   1.690
 4201SOL    HW112627   4.898   5.065   1.778
 4201SOL    HW212628   4.803   4.978   1.679
 4202SOL     OW12629   3.964   4.815   0.886
 4202SOL    HW112630   3.978   4.731   0.938
 4202SOL    HW212631   3.909   4.879   0.941
 4203SOL     OW12632   4.330   4.688   0.123
 4203SOL    HW112633   4.337   4.772   0.069
 4203SOL    HW212634   4.376   4.701   0.211
 4204SOL     OW12635   3.846   4.367   0.563
 4204SOL    HW112636   3.801   4.279   0.580
 4204SOL    HW212637   3.845   4.421   0.647
 4205SOL     OW12638   5.413   4.646   0.612
 4205SOL    HW112639   5.508   4.617   0.620
 4205SOL    HW212640   5.405   4.711   0.537
 4206SOL     OW12641   3.837   4.461   1.597
 4206SOL    HW112642   3.925   4.448   1.642
 4206SOL    HW212643   3.824   4.558   1.575
 4207SOL     OW12644   4.337   5.089   0.726
 4207SOL    HW112645   4.288   5.002   0.735
 4207SOL    HW212646   4.314   5.132   0.639
 4208SOL     OW12647   5.017   4.952   1.423
 4208SOL    HW112648   5.054   4.879   1.365
 4208SOL    HW212649   5.069   4.957   1.508
 4209SOL     OW12650   4.533   3.728   0.502
 4209SOL    HW112651   4.573   3.819   0.493
 4209SOL    HW212652   4.433   3.736   0.508
 4210SOL     OW12653   3.921   4.700   1.264
 4210SOL    HW112654   4.010   4.655   1.250
 4210SOL    HW212655   3.848   4.635   1.245
 4211SOL     OW12656   4.041   3.975   1.801
 4211SOL    HW112657   4.112   4.046   1.807
 4211SOL    HW212658   3.953   4.014   1.829
 4212SOL     OW12659   4.322   4.453   0.270
 4212SOL    HW112660   4.346   4.522   0.202
 4212SOL    HW212661   4.244   4.486   0.324
 4213SOL     OW12662   5.005   4.069   0.944
 4213SOL    HW112663   4.919   4.019   0.931
 4213SOL    HW212664   5.067   4.015   1.000
 4214SOL     OW12665   4.531   4.329   1.465
 4214SOL    HW112666   4.484   4.326   1.554
 4214SOL    HW212667   4.480   4.274   1.399
 4215SOL     OW12668   5.118   4.193   1.674
 4215SOL    HW112669   5.098   4.236   1.762
 4215SOL    HW212670   5.196   4.131   1.683
 4216SOL     OW12671   4.697   4.614   1.572
 4216SOL    HW112672   4.743   4.530   1.543
 4216SOL    HW212673   4.641   4.648   1.497
 4217SOL     OW12674   4.715   4.134   1.242
 4217SOL    HW112675   4.638   4.168   1.296
 4217SOL    HW212676   4.681   4.083   1.163
 4218SOL     OW12677   4.765   4.425   0.429
 4218SOL    HW112678   4.791   4.421   0.525
 4218SOL    HW212679   4.680   4.374   0.415
 4219SOL     OW12680   3.800   4.535   0.789
 4219SOL    HW112681   3.899   4.523   0.798
 4219SOL    HW212682   3.776   4.630   0.810
 4220SOL     OW12683   4.589   4.072   0.195
 4220SOL    HW112684   4.648   4.135   0.146
 4220SOL    HW212685   4.608   3.978   0.166
 4221SOL     OW12686   5.086   4.868   0.545
 4221SOL    HW112687   5.169   4.839   0.497
 4221SOL    HW212688   5.037   4.935   0.489
 4222SOL     OW12689   4.274   3.920   0.885
 4222SOL    HW112690   4.269   3.915   0.985
 4222SOL    HW212691   4.276   4.016   0.856
 4223SOL     OW12692   4.045   4.667   0.242
 4223SOL    HW112693   4.127   4.706   0.200
 4223SOL    HW212694   4.018   4.585   0.193
 4224SOL     OW12695   4.185   4.990   1.727
 4224SOL    HW112696   4.135   4.991   1.641
 4224SOL    HW212697   4.122   4.972   1.803
 4225SOL     OW12698   3.926   4.009   1.498
 4225SOL    HW112699   3.846   4.069   1.485
 4225SOL    HW212700   3.916   3.960   1.584
 4226SOL     OW12701   5.356   5.101   0.081
 4226SOL    HW112702   5.324   5.195   0.071
 4226SOL    HW212703   5.280   5.038   0.069
 4227SOL     OW12704   4.106   4.424   0.480
 4227SOL    HW112705   4.151   4.334   0.477
 4227SOL    HW212706   4.012   4.413   0.513
 4228SOL     OW12707   4.505   3.988   1.749
 4228SOL    HW112708   4.572   3.927   1.792
 4228SOL    HW212709   4.432   4.007   1.814
 4229SOL     OW12710   5.075   4.314   1.433
 4229SOL    HW112711   5.103   4.271   1.518
 4229SOL    HW212712   5.100   4.410   1.434
 4230SOL     OW12713   4.646   4.227   0.899
 4230SOL    HW112714   4.621   4.218   0.803
 4230SOL    HW212715   4.694   4.145   0.930
 4231SOL     OW12716   4.263   3.788   0.512
 4231SOL    HW112717   4.182   3.789   0.570
 4231SOL    HW212718   4.266   3.871   0.457
 4232SOL     OW12719   5.158   4.912   0.041
 4232SOL    HW112720   5.190   4.836   0.098
 4232SOL    HW212721   5.066   4.939   0.071
 4233SOL     OW12722   4.659   3.960   0.480
 4233SOL    HW112723   4.611   4.001   0.402
 4233SOL    HW212724   4.758   3.958   0.461
 4234SOL     OW12725   4.800   4.407   1.464
 4234SOL    HW112726   4.720   4.346   1.467
 4234SOL    HW212727   4.881   4.354   1.440
 4235SOL     OW12728   4.951   5.294   0.793
 4235SOL    HW112729   4.972   5.368   0.728
 4235SOL    HW212730   5.019   5.294   0.866
 4236SOL     OW12731   4.183   4.876   0.741
 4236SOL    HW112732   4.112   4.849   0.806
 4236SOL    HW212733   4.157   4.848   0.648
 4237SOL     OW12734   4.756   4.273   0.016
 4237SOL    HW112735   4.715   4.355  -0.023
 4237SOL    HW212736   4.820   4.299   0.089
 4238SOL     OW12737   3.802   4.280   1.386
 4238SOL    HW112738   3.894   4.279   1.345
 4238SOL    HW212739   3.796   4.354   1.453
 4239SOL     OW12740   4.285   3.946   1.147
 4239SOL    HW112741   4.323   3.862   1.184
 4239SOL    HW212742   4.197   3.965   1.191
 4240SOL     OW12743   4.590   4.178   0.642
 4240SOL    HW112744   4.558   4.250   0.580
 4240SOL    HW212745   4.614   4.097   0.589
 4241SOL     OW12746   4.741   3.763   0.753
 4241SOL    HW112747   4.669   3.768   0.684
 4241SOL    HW212748   4.717   3.694   0.822
 4242SOL     OW12749   5.114   4.299   0.078
 4242SOL    HW112750   5.060   4.278   0.159
 4242SOL    HW212751   5.205   4.258   0.087
 4243SOL     OW12752   4.251   3.980   0.328
 4243SOL    HW112753   4.278   3.921   0.253
 4243SOL    HW212754   4.251   4.075   0.297
 4244SOL     OW12755   4.788   5.071   1.340
 4244SOL    HW112756   4.708   5.048   1.395
 4244SOL    HW212757   4.871   5.045   1.389
 4245SOL     OW12758   4.835   4.919   1.100
 4245SOL    HW112759   4.795   4.963   1.181
 4245SOL    HW212760   4.794   4.956   1.017
 4246SOL     OW12761   4.639   3.813   1.402
 4246SOL    HW112762   4.664   3.793   1.307
 4246SOL    HW212763   4.711   3.869   1.444
 4247SOL     OW12764   4.704   4.840   1.719
 4247SOL    HW112765   4.605   4.846   1.729
 4247SOL    HW212766   4.727   4.760   1.663
 4248SOL     OW12767   4.429   4.774   0.368
 4248SOL    HW112768   4.415   4.781   0.467
 4248SOL    HW212769   4.513   4.723   0.350
 4249SOL     OW12770   4.134   4.537   1.251
 4249SOL    HW112771   4.220   4.549   1.301
 4249SOL    HW212772   4.092   4.450   1.278
 4250SOL     OW12773   4.998   4.110   1.262
 4250SOL    HW112774   5.019   4.184   1.326
 4250SOL    HW212775   4.909   4.127   1.219
 4251SOL     OW12776   4.091   4.824   0.501
 4251SOL    HW112777   4.084   4.907   0.445
 4251SOL    HW212778   4.095   4.744   0.441
 4252SOL     OW12779   4.290   4.261   0.865
 4252SOL    HW112780   4.302   4.327   0.791
 4252SOL    HW212781   4.336   4.295   0.948
 4253SOL     OW12782   4.976   5.072   0.388
 4253SOL    HW112783   5.026   5.149   0.428
 4253SOL    HW212784   4.881   5.074   0.420
 4254SOL     OW12785   4.996   5.169   1.142
 4254SOL    HW112786   5.043   5.182   1.229
 4254SOL    HW212787   4.930   5.095   1.151
 4255SOL     OW12788   4.126   4.475   1.598
 4255SOL    HW112789   4.194   4.530   1.551
 4255SOL    HW212790   4.166   4.387   1.625
 4256SOL     OW12791   4.737   3.829   1.770
 4256SOL    HW112792   4.743   3.914   1.718
 4256SOL    HW212793   4.769   3.753   1.713
 4257SOL     OW12794   4.228   3.774   1.740
 4257SOL    HW112795   4.186   3.717   1.670
 4257SOL    HW212796   4.162   3.843   1.772
 4258SOL     OW12797   4.297   4.594   1.029
 4258SOL    HW112798   4.341   4.683   1.020
 4258SOL    HW212799   4.234   4.594   1.106
 4259SOL     OW12800   5.084   4.586   1.045
 4259SOL    HW112801   5.009   4.586   0.979
 4259SOL    HW212802   5.121   4.494   1.054
 4260SOL     OW12803   4.933   4.249   0.275
 4260SOL    HW112804   4.946   4.165   0.329
 4260SOL    HW212805   4.904   4.323   0.335
 4261SOL     OW12806   4.031   3.937   1.231
 4261SOL    HW112807   4.008   3.974   1.321
 4261SOL    HW212808   4.001   3.842   1.225
 4262SOL     OW12809   3.761   5.034   1.282
 4262SOL    HW112810   3.814   4.985   1.350
 4262SOL    HW212811   3.783   5.132   1.287
 4263SOL     OW12812   4.456   4.358   1.064
 4263SOL    HW112813   4.515   4.332   0.988
 4263SOL    HW212814   4.428   4.454   1.053
 4264SOL     OW12815   4.031   3.787   0.618
 4264SOL    HW112816   4.020   3.881   0.651
 4264SOL    HW212817   4.026   3.724   0.695
 4265SOL     OW12818   5.346   4.091   0.374
 4265SOL    HW112819   5.348   4.015   0.438
 4265SOL    HW212820   5.298   4.168   0.414
 4266SOL     OW12821   4.747   4.490   0.966
 4266SOL    HW112822   4.762   4.511   1.062
 4266SOL    HW212823   4.717   4.395   0.957
 4267SOL     OW12824   4.074   4.622   1.804
 4267SOL    HW112825   4.150   4.666   1.852
 4267SOL    HW212826   4.109   4.575   1.722
 4268SOL     OW12827   5.027   4.562   0.042
 4268SOL    HW112828   5.061   4.469   0.057
 4268SOL    HW212829   5.045   4.589  -0.053
 4269SOL     OW12830   4.043   4.534   0.949
 4269SOL    HW112831   4.136   4.570   0.954
 4269SOL    HW212832   4.037   4.449   1.001
 4270SOL     OW12833   4.063   4.233   1.006
 4270SOL    HW112834   4.011   4.150   0.989
 4270SOL    HW212835   4.140   4.238   0.942
 4271SOL     OW12836   4.862   4.104   1.678
 4271SOL    HW112837   4.817   4.167   1.742
 4271SOL    HW212838   4.955   4.135   1.661
 4272SOL     OW12839   4.884   3.931   1.477
 4272SOL    HW112840   4.884   3.995   1.554
 4272SOL    HW212841   4.912   3.979   1.394
 4273SOL     OW12842   4.726   4.520   1.238
 4273SOL    HW112843   4.767   4.488   1.324
 4273SOL    HW212844   4.630   4.493   1.235
 4274SOL     OW12845   3.764   4.268   1.114
 4274SOL    HW112846   3.849   4.235   1.073
 4274SOL    HW212847   3.777   4.283   1.212
 4275SOL     OW12848   3.913   4.244   1.722
 4275SOL    HW112849   3.972   4.204   1.652
 4275SOL    HW212850   3.855   4.315   1.681
 4276SOL     OW12851   5.093   4.674   1.660
 4276SOL    HW112852   5.132   4.763   1.680
 4276SOL    HW212853   5.103   4.654   1.563
 4277SOL     OW12854   4.539   4.296   0.325
 4277SOL    HW112855   4.546   4.207   0.279
 4277SOL    HW212856   4.445   4.330   0.317
 4278SOL     OW12857   4.395   4.188   1.269
 4278SOL    HW112858   4.361   4.099   1.239
 4278SOL    HW212859   4.421   4.242   1.189
 4279SOL     OW12860   4.197   4.224   0.191
 4279SOL    HW112861   4.258   4.304   0.195
 4279SOL    HW212862   4.102   4.255   0.198
 4280SOL     OW12863   3.883   4.861   1.466
 4280SOL    HW112864   3.905   4.800   1.542
 4280SOL    HW212865   3.893   4.812   1.380
 4281SOL     OW12866   5.071   4.783   1.234
 4281SOL    HW112867   5.095   4.720   1.160
 4281SOL    HW212868   4.981   4.823   1.216
 4282SOL     OW12869   5.026   4.579   0.309
 4282SOL    HW112870   4.940   4.548   0.351
 4282SOL    HW212871   5.022   4.565   0.210
 4283SOL     OW12872   3.807   4.982   1.022
 4283SOL    HW112873   3.802   4.981   1.122
 4283SOL    HW212874   3.724   4.941   0.984
 4284SOL     OW12875   4.627   3.810   0.133
 4284SOL    HW112876   4.678   3.811   0.047
 4284SOL    HW212877   4.683   3.768   0.204
 4285SOL     OW12878   5.004   4.651   0.672
 4285SOL    HW112879   5.064   4.570   0.674
 4285SOL    HW212880   5.044   4.720   0.612
 4286SOL     OW12881   4.554   4.997   1.422
 4286SOL    HW112882   4.549   5.030   1.517
 4286SOL    HW212883   4.468   5.016   1.376
 4287SOL     OW12884   3.987   4.050   0.720
 4287SOL    HW112885   3.908   4.101   0.686
 4287SOL    HW212886   3.978   4.035   0.818
 4288SOL     OW12887   4.546   4.726   1.372
 4288SOL    HW112888   4.586   4.725   1.280
 4288SOL    HW212889   4.556   4.818   1.412
 4289SOL     OW12890   4.640   4.634   0.291
 4289SOL    HW112891   4.703   4.672   0.223
 4289SOL    HW212892   4.680   4.551   0.330
 4290SOL     OW12893   4.096   5.012   1.490
 4290SOL    HW112894   4.083   5.105   1.456
 4290SOL    HW212895   4.012   4.960   1.477
 4291SOL     OW12896   4.763   4.822   0.696
 4291SOL    HW112897   4.693   4.775   0.750
 4291SOL    HW212898   4.822   4.754   0.653
 4292SOL     OW12899   4.738   3.960   0.971
 4292SOL    HW112900   4.730   3.924   0.878
 4292SOL    HW212901   4.736   3.884   1.036
 4293SOL     OW12902   3.829   4.737   1.726
 4293SOL    HW112903   3.752   4.704   1.780
 4293SOL    HW212904   3.914   4.707   1.768
 4294SOL     OW12905   4.396   3.927   1.489
 4294SOL    HW112906   4.486   3.911   1.449
 4294SOL    HW212907   4.404   3.932   1.588
 4295SOL     OW12908   3.799   4.069   0.033
 4295SOL    HW112909   3.707   4.041   0.004
 4295SOL    HW212910   3.830   4.146  -0.023
 4296SOL     OW12911   5.164   4.580   1.398
 4296SOL    HW112912   5.107   4.632   1.335
 4296SOL    HW212913   5.260   4.592   1.374
 4297SOL     OW12914   3.796   3.890   0.318
 4297SOL    HW112915   3.779   3.973   0.264
 4297SOL    HW212916   3.886   3.853   0.296
 4298SOL     OW12917   4.337   4.566   1.431
 4298SOL    HW112918   4.393   4.647   1.414
 4298SOL    HW212919   4.396   4.486   1.434
 4299SOL     OW12920   4.440   4.289   1.708
 4299SOL    HW112921   4.459   4.354   1.782
 4299SOL    HW212922   4.500   4.209   1.717
 4300SOL     OW12923   5.174   4.944   1.633
 4300SOL    HW112924   5.165   4.934   1.732
 4300SOL    HW212925   5.270   4.937   1.607
 4301SOL     OW12926   4.949   4.049   0.449
 4301SOL    HW112927   5.014   3.975   0.438
 4301SOL    HW212928   4.969   4.099   0.533
 4302SOL     OW12929   4.318   4.469   0.652
 4302SOL    HW112930   4.368   4.554   0.633
 4302SOL    HW212931   4.230   4.471   0.604
 4303SOL     OW12932   4.583   4.680   0.861
 4303SOL    HW112933   4.637   4.611   0.909
 4303SOL    HW212934   4.551   4.749   0.927
 4304SOL     OW12935   4.807   4.708   0.087
 4304SOL    HW112936   4.784   4.761   0.005
 4304SOL    HW212937   4.888   4.652   0.068
 4305SOL     OW12938   3.945   5.038   1.844
 4305SOL    HW112939   3.880   4.965   1.823
 4305SOL    HW212940   3.949   5.052   1.942
 4306SOL     OW12941   3.803   4.964   0.653
 4306SOL    HW112942   3.802   4.917   0.741
 4306SOL    HW212943   3.885   4.936   0.602
 4307SOL     OW12944   4.396   5.115   1.624
 4307SOL    HW112945   4.318   5.065   1.662
 4307SOL    HW212946   4.393   5.210   1.655
 4308SOL     OW12947   4.152   4.148   0.520
 4308SOL    HW112948   4.182   4.076   0.458
 4308SOL    HW212949   4.113   4.108   0.603
 4309SOL     OW12950   4.041   4.271   1.280
 4309SOL    HW112951   4.079   4.212   1.352
 4309SOL    HW212952   4.081   4.245   1.192
 4310SOL     OW12953   5.148   3.938   1.112
 4310SOL    HW112954   5.200   3.873   1.167
 4310SOL    HW212955   5.099   4.001   1.173
 4311SOL     OW12956   4.725   3.758   1.154
 4311SOL    HW112957   4.662   3.686   1.123
 4311SOL    HW212958   4.818   3.722   1.154
 4312SOL     OW12959   4.494   5.054   0.301
 4312SOL    HW112960   4.448   4.967   0.318
 4312SOL    HW212961   4.585   5.051   0.342
 4313SOL     OW12962   3.763   4.801   0.300
 4313SOL    HW112963   3.862   4.790   0.291
 4313SOL    HW212964   3.723   4.715   0.332
 4314SOL     OW12965   3.954   4.352   1.975
 4314SOL    HW112966   3.861   4.350   2.012
 4314SOL    HW212967   3.955   4.313   1.883
 4315SOL     OW12968   3.949   3.999   2.858
 4315SOL    HW112969   3.984   3.982   2.950
 4315SOL    HW212970   3.861   3.954   2.846
 4316SOL     OW12971   3.743   4.092   2.509
 4316SOL    HW112972   3.661   4.135   2.548
 4316SOL    HW212973   3.715   4.019   2.446
 4317SOL     OW12974   4.293   4.999   3.027
 4317SOL    HW112975   4.200   4.992   2.990
 4317SOL    HW212976   4.304   5.088   3.071
 4318SOL     OW12977   5.279   5.235   2.565
 4318SOL    HW112978   5.222   5.219   2.646
 4318SOL    HW212979   5.220   5.245   2.485
 4319SOL     OW12980   4.859   4.427   2.579
 4319SOL    HW112981   4.916   4.505   2.554
 4319SOL    HW212982   4.799   4.453   2.655
 4320SOL     OW12983   4.492   4.868   2.885
 4320SOL    HW112984   4.414   4.885   2.945
 4320SOL    HW212985   4.526   4.955   2.849
 4321SOL     OW12986   4.574   4.522   3.685
 4321SOL    HW112987   4.570   4.598   3.750
 4321SOL    HW212988   4.596   4.558   3.594
 4322SOL     OW12989   4.409   4.736   2.527
 4322SOL    HW112990   4.478   4.720   2.597
 4322SOL    HW212991   4.336   4.793   2.565
 4323SOL     OW12992   4.410   4.885   3.665
 4323SOL    HW112993   4.470   4.964   3.679
 4323SOL    HW212994   4.324   4.916   3.624
 4324SOL     OW12995   4.059   5.159   2.923
 4324SOL    HW112996   3.981   5.128   2.870
 4324SOL    HW212997   4.117   5.217   2.866
 4325SOL     OW12998   4.162   4.116   3.361
 4325SOL    HW112999   4.244   4.060   3.370
 4325SOL    HW213000   4.081   4.058   3.365
 4326SOL     OW13001   3.955   5.437   2.345
 4326SOL    HW113002   3.989   5.514   2.399
 4326SOL    HW213003   3.999   5.437   2.255
 4327SOL     OW13004   4.851   5.065   3.552
 4327SOL    HW113005   4.898   5.065   3.640
 4327SOL    HW213006   4.803   4.978   3.541
 4328SOL     OW13007   3.964   4.815   2.748
 4328SOL    HW113008   3.978   4.731   2.800
 4328SOL    HW213009   3.909   4.879   2.803
 4329SOL     OW13010   4.330   4.688   1.985
 4329SOL    HW113011   4.337   4.772   1.931
 4329SOL    HW213012   4.376   4.701   2.073
 4330SOL     OW13013   3.846   4.367   2.425
 4330SOL    HW113014   3.801   4.279   2.442
 4330SOL    HW213015   3.845   4.421   2.509
 4331SOL     OW13016   5.413   4.646   2.474
 4331SOL    HW113017   5.508   4.617   2.482
 4331SOL    HW213018   5.405   4.711   2.399
 4332SOL     OW13019   3.837   4.461   3.459
 4332SOL    HW113020   3.925   4.448   3.504
 4332SOL    HW213021   3.824   4.558   3.437
 4333SOL     OW13022   4.337   5.089   2.588
 4333SOL    HW113023   4.288   5.002   2.597
 4333SOL    HW213024   4.314   5.132   2.501
 4334SOL     OW13025   5.017   4.952   3.285
 4334SOL    HW113026   5.054   4.879   3.227
 4334SOL    HW213027   5.069   4.957   3.370
 4335SOL     OW13028   4.533   3.728   2.364
 4335SOL    HW113029   4.573   3.819   2.355
 4335SOL    HW213030   4.433   3.736   2.370
 4336SOL     OW13031   3.921   4.700   3.126
 4336SOL    HW113032   4.010   4.655   3.112
 4336SOL    HW213033   3.848   4.635   3.107
 4337SOL     OW13034   4.041   3.975   3.663
 4337SOL    HW113035   4.112   4.046   3.669
 4337SOL    HW213036   3.953   4.014   3.691
 4338SOL     OW13037   4.322   4.453   2.132
 4338SOL    HW113038   4.346   4.522   2.064
 4338SOL    HW213039   4.244   4.486   2.186
 4339SOL     OW13040   5.005   4.069   2.806
 4339SOL    HW113041   4.919   4.019   2.793
 4339SOL    HW213042   5.067   4.015   2.862
 4340SOL     OW13043   4.531   4.329   3.327
 4340SOL    HW113044   4.484   4.326   3.416
 4340SOL    HW213045   4.480   4.274   3.261
 4341SOL     OW13046   5.118   4.193   3.536
 4341SOL    HW113047   5.098   4.236   3.624
 4341SOL    HW213048   5.196   4.131   3.545
 4342SOL     OW13049   4.697   4.614   3.434
 4342SOL    HW113050   4.743   4.530   3.405
 4342SOL    HW213051   4.641   4.648   3.359
 4343SOL     OW13052   4.715   4.134   3.104
 4343SOL    HW113053   4.638   4.168   3.158
 4343SOL    HW213054   4.681   4.083   3.025
 4344SOL     OW13055   4.765   4.425   2.291
 4344SOL    HW113056   4.791   4.421   2.387
 4344SOL    HW213057   4.680   4.374   2.277
 4345SOL     OW13058   3.800   4.535   2.651
 4345SOL    HW113059   3.899   4.523   2.660
 4345SOL    HW213060   3.776   4.630   2.672
 4346SOL     OW13061   4.589   4.072   2.057
 4346SOL    HW113062   4.648   4.135   2.008
 4346SOL    HW213063   4.608   3.978   2.028
 4347SOL     OW13064   5.086   4.868   2.407
 4347SOL    HW113065   5.169   4.839   2.359
 4347SOL    HW213066   5.037   4.935   2.351
 4348SOL     OW13067   4.274   3.920   2.747
 4348SOL    HW113068   4.269   3.915   2.847
 4348SOL    HW213069   4.276   4.016   2.718
 4349SOL     OW13070   4.045   4.667   2.104
 4349SOL    HW113071   4.127   4.706   2.062
 4349SOL    HW213072   4.018   4.585   2.055
 4350SOL     OW13073   4.185   4.990   3.589
 4350SOL    HW113074   4.135   4.991   3.503
 4350SOL    HW213075   4.122   4.972   3.665
 4351SOL     OW13076   4.835   5.500   2.099
 4351SOL    HW113077   4.775   5.438   2.149
 4351SOL    HW213078   4.866   5.456   2.014
 4352SOL     OW13079   3.926   4.009   3.360
 4352SOL    HW113080   3.846   4.069   3.347
 4352SOL    HW213081   3.916   3.960   3.446
 4353SOL     OW13082   4.106   4.424   2.342
 4353SOL    HW113083   4.151   4.334   2.339
 4353SOL    HW213084   4.012   4.413   2.375
 4354SOL     OW13085   4.338   3.846   1.979
 4354SOL    HW113086   4.436   3.824   1.986
 4354SOL    HW213087   4.307   3.829   1.886
 4355SOL     OW13088   4.505   3.988   3.611
 4355SOL    HW113089   4.572   3.927   3.654
 4355SOL    HW213090   4.432   4.007   3.676
 4356SOL     OW13091   5.075   4.314   3.295
 4356SOL    HW113092   5.103   4.271   3.380
 4356SOL    HW213093   5.100   4.410   3.296
 4357SOL     OW13094   4.646   4.227   2.761
 4357SOL    HW113095   4.621   4.218   2.665
 4357SOL    HW213096   4.694   4.145   2.792
 4358SOL     OW13097   4.263   3.788   2.374
 4358SOL    HW113098   4.182   3.789   2.432
 4358SOL    HW213099   4.266   3.871   2.319
 4359SOL     OW13100   5.158   4.912   1.903
 4359SOL    HW113101   5.190   4.836   1.960
 4359SOL    HW213102   5.066   4.939   1.933
 4360SOL     OW13103   4.021   3.759   2.033
 4360SOL    HW113104   4.070   3.843   2.012
 4360SOL    HW213105   4.083   3.694   2.078
 4361SOL     OW13106   4.659   3.960   2.342
 4361SOL    HW113107   4.611   4.001   2.264
 4361SOL    HW213108   4.758   3.958   2.323
 4362SOL     OW13109   4.800   4.407   3.326
 4362SOL    HW113110   4.720   4.346   3.329
 4362SOL    HW213111   4.881   4.354   3.302
 4363SOL     OW13112   4.951   5.294   2.655
 4363SOL    HW113113   4.972   5.368   2.590
 4363SOL    HW213114   5.019   5.294   2.728
 4364SOL     OW13115   4.183   4.876   2.603
 4364SOL    HW113116   4.112   4.849   2.668
 4364SOL    HW213117   4.157   4.848   2.510
 4365SOL     OW13118   4.756   4.273   1.878
 4365SOL    HW113119   4.715   4.355   1.839
 4365SOL    HW213120   4.820   4.299   1.951
 4366SOL     OW13121   3.802   4.280   3.248
 4366SOL    HW113122   3.894   4.279   3.207
 4366SOL    HW213123   3.796   4.354   3.315
 4367SOL     OW13124   4.285   3.946   3.009
 4367SOL    HW113125   4.323   3.862   3.046
 4367SOL    HW213126   4.197   3.965   3.053
 4368SOL     OW13127   4.590   4.178   2.504
 4368SOL    HW113128   4.558   4.250   2.442
 4368SOL    HW213129   4.614   4.097   2.451
 4369SOL     OW13130   4.741   3.763   2.615
 4369SOL    HW113131   4.669   3.768   2.546
 4369SOL    HW213132   4.717   3.694   2.684
 4370SOL     OW13133   5.114   4.299   1.940
 4370SOL    HW113134   5.060   4.278   2.021
 4370SOL    HW213135   5.205   4.258   1.949
 4371SOL     OW13136   4.251   3.980   2.190
 4371SOL    HW113137   4.278   3.921   2.115
 4371SOL    HW213138   4.251   4.075   2.159
 4372SOL     OW13139   4.788   5.071   3.202
 4372SOL    HW113140   4.708   5.048   3.257
 4372SOL    HW213141   4.871   5.045   3.251
 4373SOL     OW13142   4.835   4.919   2.962
 4373SOL    HW113143   4.795   4.963   3.043
 4373SOL    HW213144   4.794   4.956   2.879
 4374SOL     OW13145   4.639   3.813   3.264
 4374SOL    HW113146   4.664   3.793   3.169
 4374SOL    HW213147   4.711   3.869   3.306
 4375SOL     OW13148   4.704   4.840   3.581
 4375SOL    HW113149   4.605   4.846   3.591
 4375SOL    HW213150   4.727   4.760   3.525
 4376SOL     OW13151   4.429   4.774   2.230
 4376SOL    HW113152   4.415   4.781   2.329
 4376SOL    HW213153   4.513   4.723   2.212
 4377SOL     OW13154   4.134   4.537   3.113
 4377SOL    HW113155   4.220   4.549   3.163
 4377SOL    HW213156   4.092   4.450   3.140
 4378SOL     OW13157   4.998   4.110   3.124
 4378SOL    HW113158   5.019   4.184   3.188
 4378SOL    HW213159   4.909   4.127   3.081
 4379SOL     OW13160   4.091   4.824   2.363
 4379SOL    HW113161   4.084   4.907   2.307
 4379SOL    HW213162   4.095   4.744   2.303
 4380SOL     OW13163   4.290   4.261   2.727
 4380SOL    HW113164   4.302   4.327   2.653
 4380SOL    HW213165   4.336   4.295   2.810
 4381SOL     OW13166   4.976   5.072   2.250
 4381SOL    HW113167   5.026   5.149   2.290
 4381SOL    HW213168   4.881   5.074   2.282
 4382SOL     OW13169   4.996   5.169   3.004
 4382SOL    HW113170   5.043   5.182   3.091
 4382SOL    HW213171   4.930   5.095   3.013
 4383SOL     OW13172   4.126   4.475   3.460
 4383SOL    HW113173   4.194   4.530   3.413
 4383SOL    HW213174   4.166   4.387   3.487
 4384SOL     OW13175   4.737   3.829   3.632
 4384SOL    HW113176   4.743   3.914   3.580
 4384SOL    HW213177   4.769   3.753   3.575
 4385SOL     OW13178   4.228   3.774   3.602
 4385SOL    HW113179   4.186   3.717   3.532
 4385SOL    HW213180   4.162   3.843   3.634
 4386SOL     OW13181   4.297   4.594   2.891
 4386SOL    HW113182   4.341   4.683   2.882
 4386SOL    HW213183   4.234   4.594   2.968
 4387SOL     OW13184   5.084   4.586   2.907
 4387SOL    HW113185   5.009   4.586   2.841
 4387SOL    HW213186   5.121   4.494   2.916
 4388SOL     OW13187   4.933   4.249   2.137
 4388SOL    HW113188   4.946   4.165   2.191
 4388SOL    HW213189   4.904   4.323   2.197
 4389SOL     OW13190   4.031   3.937   3.093
 4389SOL    HW113191   4.008   3.974   3.183
 4389SOL    HW213192   4.001   3.842   3.087
 4390SOL     OW13193   3.761   5.034   3.144
 4390SOL    HW113194   3.814   4.985   3.212
 4390SOL    HW213195   3.783   5.132   3.149
 4391SOL     OW13196   4.456   4.358   2.926
 4391SOL    HW113197   4.515   4.332   2.850
 4391SOL    HW213198   4.428   4.454   2.915
 4392SOL     OW13199   4.031   3.787   2.480
 4392SOL    HW113200   4.020   3.881   2.513
 4392SOL    HW213201   4.026   3.724   2.557
 4393SOL     OW13202   5.346   4.091   2.236
 4393SOL    HW113203   5.348   4.015   2.300
 4393SOL    HW213204   5.298   4.168   2.276
 4394SOL     OW13205   4.747   4.490   2.828
 4394SOL    HW113206   4.762   4.511   2.924
 4394SOL    HW213207   4.717   4.395   2.819
 4395SOL     OW13208   4.074   4.622   3.666
 4395SOL    HW113209   4.150   4.666   3.714
 4395SOL    HW213210   4.109   4.575   3.584
 4396SOL     OW13211   5.027   4.562   1.904
 4396SOL    HW113212   5.061   4.469   1.919
 4396SOL    HW213213   5.045   4.589   1.809
 4397SOL     OW13214   4.043   4.534   2.811
 4397SOL    HW113215   4.136   4.570   2.816
 4397SOL    HW213216   4.037   4.449   2.863
 4398SOL     OW13217   4.063   4.233   2.868
 4398SOL    HW113218   4.011   4.150   2.851
 4398SOL    HW213219   4.140   4.238   2.804
 4399SOL     OW13220   4.862   4.104   3.540
 4399SOL    HW113221   4.817   4.167   3.604
 4399SOL    HW213222   4.955   4.135   3.523
 4400SOL     OW13223   4.884   3.931   3.339
 4400SOL    HW113224   4.884   3.995   3.416
 4400SOL    HW213225   4.912   3.979   3.256
 4401SOL     OW13226   3.732   5.050   2.062
 4401SOL    HW113227   3.639   5.071   2.031
 4401SOL    HW213228   3.742   4.951   2.075
 4402SOL     OW13229   4.726   4.520   3.100
 4402SOL    HW113230   4.767   4.488   3.186
 4402SOL    HW213231   4.630   4.493   3.097
 4403SOL     OW13232   3.764   4.268   2.976
 4403SOL    HW113233   3.849   4.235   2.935
 4403SOL    HW213234   3.777   4.283   3.074
 4404SOL     OW13235   3.913   4.244   3.584
 4404SOL    HW113236   3.972   4.204   3.514
 4404SOL    HW213237   3.855   4.315   3.543
 4405SOL     OW13238   5.093   4.674   3.522
 4405SOL    HW113239   5.132   4.763   3.542
 4405SOL    HW213240   5.103   4.654   3.425
 4406SOL     OW13241   4.539   4.296   2.187
 4406SOL    HW113242   4.546   4.207   2.141
 4406SOL    HW213243   4.445   4.330   2.179
 4407SOL     OW13244   4.395   4.188   3.131
 4407SOL    HW113245   4.361   4.099   3.101
 4407SOL    HW213246   4.421   4.242   3.051
 4408SOL     OW13247   4.197   4.224   2.053
 4408SOL    HW113248   4.258   4.304   2.057
 4408SOL    HW213249   4.102   4.255   2.060
 4409SOL     OW13250   3.883   4.861   3.328
 4409SOL    HW113251   3.905   4.800   3.404
 4409SOL    HW213252   3.893   4.812   3.242
 4410SOL     OW13253   5.071   4.783   3.096
 4410SOL    HW113254   5.095   4.720   3.022
 4410SOL    HW213255   4.981   4.823   3.078
 4411SOL     OW13256   5.026   4.579   2.171
 4411SOL    HW113257   4.940   4.548   2.213
 4411SOL    HW213258   5.022   4.565   2.072
 4412SOL     OW13259   3.807   4.982   2.884
 4412SOL    HW113260   3.802   4.981   2.984
 4412SOL    HW213261   3.724   4.941   2.846
 4413SOL     OW13262   5.004   4.651   2.534
 4413SOL    HW113263   5.064   4.570   2.536
 4413SOL    HW213264   5.044   4.720   2.474
 4414SOL     OW13265   4.554   4.997   3.284
 4414SOL    HW113266   4.549   5.030   3.379
 4414SOL    HW213267   4.468   5.016   3.238
 4415SOL     OW13268   3.987   4.050   2.582
 4415SOL    HW113269   3.908   4.101   2.548
 4415SOL    HW213270   3.978   4.035   2.680
 4416SOL     OW13271   4.546   4.726   3.234
 4416SOL    HW113272   4.586   4.725   3.142
 4416SOL    HW213273   4.556   4.818   3.274
 4417SOL     OW13274   4.640   4.634   2.153
 4417SOL    HW113275   4.703   4.672   2.085
 4417SOL    HW213276   4.680   4.551   2.192
 4418SOL     OW13277   5.228   5.331   1.906
 4418SOL    HW113278   5.136   5.368   1.913
 4418SOL    HW213279   5.266   5.351   1.816
 4419SOL     OW13280   4.096   5.012   3.352
 4419SOL    HW113281   4.083   5.105   3.318
 4419SOL    HW213282   4.012   4.960   3.339
 4420SOL     OW13283   4.763   4.822   2.558
 4420SOL    HW113284   4.693   4.775   2.612
 4420SOL    HW213285   4.822   4.754   2.515
 4421SOL     OW13286   4.738   3.960   2.833
 4421SOL    HW113287   4.730   3.924   2.740
 4421SOL    HW213288   4.736   3.884   2.898
 4422SOL     OW13289   3.829   4.737   3.588
 4422SOL    HW113290   3.752   4.704   3.642
 4422SOL    HW213291   3.914   4.707   3.630
 4423SOL     OW13292   4.396   3.927   3.351
 4423SOL    HW113293   4.486   3.911   3.311
 4423SOL    HW213294   4.404   3.932   3.450
 4424SOL     OW13295   3.799   4.069   1.895
 4424SOL    HW113296   3.707   4.041   1.866
 4424SOL    HW213297   3.830   4.146   1.839
 4425SOL     OW13298   5.164   4.580   3.260
 4425SOL    HW113299   5.107   4.632   3.197
 4425SOL    HW213300   5.260   4.592   3.236
 4426SOL     OW13301   3.796   3.890   2.180
 4426SOL    HW113302   3.779   3.973   2.126
 4426SOL    HW213303   3.886   3.853   2.158
 4427SOL     OW13304   4.337   4.566   3.293
 4427SOL    HW113305   4.393   4.647   3.276
 4427SOL    HW213306   4.396   4.486   3.296
 4428SOL     OW13307   4.440   4.289   3.570
 4428SOL    HW113308   4.459   4.354   3.644
 4428SOL    HW213309   4.500   4.209   3.579
 4429SOL     OW13310   5.174   4.944   3.495
 4429SOL    HW113311   5.165   4.934   3.594
 4429SOL    HW213312   5.270   4.937   3.469
 4430SOL     OW13313   4.949   4.049   2.311
 4430SOL    HW113314   5.014   3.975   2.300
 4430SOL    HW213315   4.969   4.099   2.395
 4431SOL     OW13316   4.318   4.469   2.514
 4431SOL    HW113317   4.368   4.554   2.495
 4431SOL    HW213318   4.230   4.471   2.466
 4432SOL     OW13319   4.583   5.098   1.878
 4432SOL    HW113320   4.537   5.113   1.966
 4432SOL    HW213321   4.627   5.183   1.848
 4433SOL     OW13322   4.583   4.680   2.723
 4433SOL    HW113323   4.637   4.611   2.771
 4433SOL    HW213324   4.551   4.749   2.789
 4434SOL     OW13325   4.807   4.708   1.949
 4434SOL    HW113326   4.784   4.761   1.867
 4434SOL    HW213327   4.888   4.652   1.930
 4435SOL     OW13328   3.945   5.038   3.706
 4435SOL    HW113329   3.880   4.965   3.685
 4435SOL    HW213330   3.949   5.052   3.804
 4436SOL     OW13331   3.803   4.964   2.515
 4436SOL    HW113332   3.802   4.917   2.603
 4436SOL    HW213333   3.885   4.936   2.464
 4437SOL     OW13334   4.396   5.115   3.486
 4437SOL    HW113335   4.318   5.065   3.524
 4437SOL    HW213336   4.393   5.210   3.517
 4438SOL     OW13337   4.152   4.148   2.382
 4438SOL    HW113338   4.182   4.076   2.320
 4438SOL    HW213339   4.113   4.108   2.465
 4439SOL     OW13340   4.041   4.271   3.142
 4439SOL    HW113341   4.079   4.212   3.214
 4439SOL    HW213342   4.081   4.245   3.054
 4440SOL     OW13343   5.148   3.938   2.974
 4440SOL    HW113344   5.200   3.873   3.029
 4440SOL    HW213345   5.099   4.001   3.035
 4441SOL     OW13346   4.725   3.758   3.016
 4441SOL    HW113347   4.662   3.686   2.985
 4441SOL    HW213348   4.818   3.722   3.016
 4442SOL     OW13349   4.494   5.054   2.163
 4442SOL    HW113350   4.448   4.967   2.180
 4442SOL    HW213351   4.585   5.051   2.204
 4443SOL     OW13352   5.076   3.776   2.030
 4443SOL    HW113353   5.111   3.735   1.946
 4443SOL    HW213354   4.986   3.738   2.050
 4444SOL     OW13355   3.763   4.801   2.162
 4444SOL    HW113356   3.862   4.790   2.153
 4444SOL    HW213357   3.723   4.715   2.194
 4445SOL     OW13358   3.954   4.352   3.837
 4445SOL    HW113359   3.861   4.350   3.874
 4445SOL    HW213360   3.955   4.313   3.745
 4446SOL     OW13361   3.949   3.999   4.720
 4446SOL    HW113362   3.984   3.982   4.812
 4446SOL    HW213363   3.861   3.954   4.708
 4447SOL     OW13364   3.743   4.092   4.371
 4447SOL    HW113365   3.661   4.135   4.410
 4447SOL    HW213366   3.715   4.019   4.308
 4448SOL     OW13367   4.293   4.999   4.889
 4448SOL    HW113368   4.200   4.992   4.852
 4448SOL    HW213369   4.304   5.088   4.933
 4449SOL     OW13370   5.279   5.235   4.427
 4449SOL    HW113371   5.222   5.219   4.508
 4449SOL    HW213372   5.220   5.245   4.347
 4450SOL     OW13373   4.859   4.427   4.441
 4450SOL    HW113374   4.916   4.505   4.416
 4450SOL    HW213375   4.799   4.453   4.517
 4451SOL     OW13376   4.492   4.868   4.747
 4451SOL    HW113377   4.414   4.885   4.807
 4451SOL    HW213378   4.526   4.955   4.711
 4452SOL     OW13379   4.409   4.736   4.389
 4452SOL    HW113380   4.478   4.720   4.459
 4452SOL    HW213381   4.336   4.793   4.427
 4453SOL     OW13382   4.059   5.159   4.785
 4453SOL    HW113383   3.981   5.128   4.732
 4453SOL    HW213384   4.117   5.217   4.728
 4454SOL     OW13385   4.162   4.116   5.223
 4454SOL    HW113386   4.244   4.060   5.232
 4454SOL    HW213387   4.081   4.058   5.227
 4455SOL     OW13388   3.955   5.437   4.207
 4455SOL    HW113389   3.989   5.514   4.261
 4455SOL    HW213390   3.999   5.437   4.117
 4456SOL     OW13391   3.964   4.815   4.610
 4456SOL    HW113392   3.978   4.731   4.662
 4456SOL    HW213393   3.909   4.879   4.665
 4457SOL     OW13394   4.330   4.688   3.847
 4457SOL    HW113395   4.337   4.772   3.793
 4457SOL    HW213396   4.376   4.701   3.935
 4458SOL     OW13397   5.318   3.838   5.204
 4458SOL    HW113398   5.300   3.905   5.132
 4458SOL    HW213399   5.315   3.884   5.293
 4459SOL     OW13400   3.846   4.367   4.287
 4459SOL    HW113401   3.801   4.279   4.304
 4459SOL    HW213402   3.845   4.421   4.371
 4460SOL     OW13403   5.413   4.646   4.336
 4460SOL    HW113404   5.508   4.617   4.344
 4460SOL    HW213405   5.405   4.711   4.261
 4461SOL     OW13406   4.337   5.089   4.450
 4461SOL    HW113407   4.288   5.002   4.459
 4461SOL    HW213408   4.314   5.132   4.363
 4462SOL     OW13409   4.533   3.728   4.226
 4462SOL    HW113410   4.573   3.819   4.217
 4462SOL    HW213411   4.433   3.736   4.232
 4463SOL     OW13412   3.921   4.700   4.988
 4463SOL    HW113413   4.010   4.655   4.974
 4463SOL    HW213414   3.848   4.635   4.969
 4464SOL     OW13415   4.322   4.453   3.994
 4464SOL    HW113416   4.346   4.522   3.926
 4464SOL    HW213417   4.244   4.486   4.048
 4465SOL     OW13418   5.005   4.069   4.668
 4465SOL    HW113419   4.919   4.019   4.655
 4465SOL    HW213420   5.067   4.015   4.724
 4466SOL     OW13421   4.531   4.329   5.189
 4466SOL    HW113422   4.484   4.326   5.278
 4466SOL    HW213423   4.480   4.274   5.123
 4467SOL     OW13424   4.715   4.134   4.966
 4467SOL    HW113425   4.638   4.168   5.020
 4467SOL    HW213426   4.681   4.083   4.887
 4468SOL     OW13427   4.765   4.425   4.153
 4468SOL    HW113428   4.791   4.421   4.249
 4468SOL    HW213429   4.680   4.374   4.139
 4469SOL     OW13430   3.800   4.535   4.513
 4469SOL    HW113431   3.899   4.523   4.522
 4469SOL    HW213432   3.776   4.630   4.534
 4470SOL     OW13433   4.589   4.072   3.919
 4470SOL    HW113434   4.648   4.135   3.870
 4470SOL    HW213435   4.608   3.978   3.890
 4471SOL     OW13436   5.086   4.868   4.269
 4471SOL    HW113437   5.169   4.839   4.221
 4471SOL    HW213438   5.037   4.935   4.213
 4472SOL     OW13439   4.274   3.920   4.609
 4472SOL    HW113440   4.269   3.915   4.709
 4472SOL    HW213441   4.276   4.016   4.580
 4473SOL     OW13442   4.045   4.667   3.966
 4473SOL    HW113443   4.127   4.706   3.924
 4473SOL    HW213444   4.018   4.585   3.917
 4474SOL     OW13445   4.835   5.500   3.961
 4474SOL    HW113446   4.775   5.438   4.011
 4474SOL    HW213447   4.866   5.456   3.876
 4475SOL     OW13448   4.106   4.424   4.204
 4475SOL    HW113449   4.151   4.334   4.201
 4475SOL    HW213450   4.012   4.413   4.237
 4476SOL     OW13451   4.338   3.846   3.841
 4476SOL    HW113452   4.436   3.824   3.848
 4476SOL    HW213453   4.307   3.829   3.748
 4477SOL     OW13454   4.646   4.227   4.623
 4477SOL    HW113455   4.621   4.218   4.527
 4477SOL    HW213456   4.694   4.145   4.654
 4478SOL     OW13457   4.263   3.788   4.236
 4478SOL    HW113458   4.182   3.789   4.294
 4478SOL    HW213459   4.266   3.871   4.181
 4479SOL     OW13460   5.158   4.912   3.765
 4479SOL    HW113461   5.190   4.836   3.822
 4479SOL    HW213462   5.066   4.939   3.795
 4480SOL     OW13463   4.021   3.759   3.895
 4480SOL    HW113464   4.070   3.843   3.874
 4480SOL    HW213465   4.083   3.694   3.940
 4481SOL     OW13466   4.659   3.960   4.204
 4481SOL    HW113467   4.611   4.001   4.126
 4481SOL    HW213468   4.758   3.958   4.185
 4482SOL     OW13469   4.951   5.294   4.517
 4482SOL    HW113470   4.972   5.368   4.452
 4482SOL    HW213471   5.019   5.294   4.590
 4483SOL     OW13472   4.183   4.876   4.465
 4483SOL    HW113473   4.112   4.849   4.530
 4483SOL    HW213474   4.157   4.848   4.372
 4484SOL     OW13475   4.756   4.273   3.740
 4484SOL    HW113476   4.715   4.355   3.701
 4484SOL    HW213477   4.820   4.299   3.813
 4485SOL     OW13478   4.285   3.946   4.871
 4485SOL    HW113479   4.323   3.862   4.908
 4485SOL    HW213480   4.197   3.965   4.915
 4486SOL     OW13481   4.590   4.178   4.366
 4486SOL    HW113482   4.558   4.250   4.304
 4486SOL    HW213483   4.614   4.097   4.313
 4487SOL     OW13484   4.741   3.763   4.477
 4487SOL    HW113485   4.669   3.768   4.408
 4487SOL    HW213486   4.717   3.694   4.546
 4488SOL     OW13487   5.114   4.299   3.802
 4488SOL    HW113488   5.060   4.278   3.883
 4488SOL    HW213489   5.205   4.258   3.811
 4489SOL     OW13490   4.251   3.980   4.052
 4489SOL    HW113491   4.278   3.921   3.977
 4489SOL    HW213492   4.251   4.075   4.021
 4490SOL     OW13493   4.788   5.071   5.064
 4490SOL    HW113494   4.708   5.048   5.119
 4490SOL    HW213495   4.871   5.045   5.113
 4491SOL     OW13496   4.835   4.919   4.824
 4491SOL    HW113497   4.795   4.963   4.905
 4491SOL    HW213498   4.794   4.956   4.741
 4492SOL     OW13499   4.429   4.774   4.092
 4492SOL    HW113500   4.415   4.781   4.191
 4492SOL    HW213501   4.513   4.723   4.074
 4493SOL     OW13502   4.134   4.537   4.975
 4493SOL    HW113503   4.220   4.549   5.025
 4493SOL    HW213504   4.092   4.450   5.002
 4494SOL     OW13505   4.998   4.110   4.986
 4494SOL    HW113506   5.019   4.184   5.050
 4494SOL    HW213507   4.909   4.127   4.943
 4495SOL     OW13508   4.091   4.824   4.225
 4495SOL    HW113509   4.084   4.907   4.169
 4495SOL    HW213510   4.095   4.744   4.165
 4496SOL     OW13511   4.290   4.261   4.589
 4496SOL    HW113512   4.302   4.327   4.515
 4496SOL    HW213513   4.336   4.295   4.672
 4497SOL     OW13514   4.976   5.072   4.112
 4497SOL    HW113515   5.026   5.149   4.152
 4497SOL    HW213516   4.881   5.074   4.144
 4498SOL     OW13517   4.996   5.169   4.866
 4498SOL    HW113518   5.043   5.182   4.953
 4498SOL    HW213519   4.930   5.095   4.875
 4499SOL     OW13520   4.228   3.774   5.464
 4499SOL    HW113521   4.186   3.717   5.394
 4499SOL    HW213522   4.162   3.843   5.496
 4500SOL     OW13523   4.297   4.594   4.753
 4500SOL    HW113524   4.341   4.683   4.744
 4500SOL    HW213525   4.234   4.594   4.830
 4501SOL     OW13526   5.084   4.586   4.769
 4501SOL    HW113527   5.009   4.586   4.703
 4501SOL    HW213528   5.121   4.494   4.778
 4502SOL     OW13529   4.933   4.249   3.999
 4502SOL    HW113530   4.946   4.165   4.053
 4502SOL    HW213531   4.904   4.323   4.059
 4503SOL     OW13532   4.031   3.937   4.955
 4503SOL    HW113533   4.008   3.974   5.045
 4503SOL    HW213534   4.001   3.842   4.949
 4504SOL     OW13535   3.761   5.034   5.006
 4504SOL    HW113536   3.814   4.985   5.074
 4504SOL    HW213537   3.783   5.132   5.011
 4505SOL     OW13538   4.456   4.358   4.788
 4505SOL    HW113539   4.515   4.332   4.712
 4505SOL    HW213540   4.428   4.454   4.777
 4506SOL     OW13541   4.031   3.787   4.342
 4506SOL    HW113542   4.020   3.881   4.375
 4506SOL    HW213543   4.026   3.724   4.419
 4507SOL     OW13544   5.346   4.091   4.098
 4507SOL    HW113545   5.348   4.015   4.162
 4507SOL    HW213546   5.298   4.168   4.138
 4508SOL     OW13547   4.747   4.490   4.690
 4508SOL    HW113548   4.762   4.511   4.786
 4508SOL    HW213549   4.717   4.395   4.681
 4509SOL     OW13550   5.027   4.562   3.766
 4509SOL    HW113551   5.061   4.469   3.781
 4509SOL    HW213552   5.045   4.589   3.671
 4510SOL     OW13553   4.043   4.534   4.673
 4510SOL    HW113554   4.136   4.570   4.678
 4510SOL    HW213555   4.037   4.449   4.725
 4511SOL     OW13556   4.063   4.233   4.730
 4511SOL    HW113557   4.011   4.150   4.713
 4511SOL    HW213558   4.140   4.238   4.666
 4512SOL     OW13559   4.884   3.931   5.201
 4512SOL    HW113560   4.884   3.995   5.278
 4512SOL    HW213561   4.912   3.979   5.118
 4513SOL     OW13562   3.732   5.050   3.924
 4513SOL    HW113563   3.639   5.071   3.893
 4513SOL    HW213564   3.742   4.951   3.937
 4514SOL     OW13565   4.726   4.520   4.962
 4514SOL    HW113566   4.767   4.488   5.048
 4514SOL    HW213567   4.630   4.493   4.959
 4515SOL     OW13568   3.764   4.268   4.838
 4515SOL    HW113569   3.849   4.235   4.797
 4515SOL    HW213570   3.777   4.283   4.936
 4516SOL     OW13571   4.539   4.296   4.049
 4516SOL    HW113572   4.546   4.207   4.003
 4516SOL    HW213573   4.445   4.330   4.041
 4517SOL     OW13574   4.395   4.188   4.993
 4517SOL    HW113575   4.361   4.099   4.963
 4517SOL    HW213576   4.421   4.242   4.913
 4518SOL     OW13577   4.197   4.224   3.915
 4518SOL    HW113578   4.258   4.304   3.919
 4518SOL    HW213579   4.102   4.255   3.922
 4519SOL     OW13580   3.883   4.861   5.190
 4519SOL    HW113581   3.905   4.800   5.266
 4519SOL    HW213582   3.893   4.812   5.104
 4520SOL     OW13583   5.071   4.783   4.958
 4520SOL    HW113584   5.095   4.720   4.884
 4520SOL    HW213585   4.981   4.823   4.940
 4521SOL     OW13586   5.026   4.579   4.033
 4521SOL    HW113587   4.940   4.548   4.075
 4521SOL    HW213588   5.022   4.565   3.934
 4522SOL     OW13589   3.807   4.982   4.746
 4522SOL    HW113590   3.802   4.981   4.846
 4522SOL    HW213591   3.724   4.941   4.708
 4523SOL     OW13592   5.004   4.651   4.396
 4523SOL    HW113593   5.064   4.570   4.398
 4523SOL    HW213594   5.044   4.720   4.336
 4524SOL     OW13595   4.554   4.997   5.146
 4524SOL    HW113596   4.549   5.030   5.241
 4524SOL    HW213597   4.468   5.016   5.100
 4525SOL     OW13598   3.987   4.050   4.444
 4525SOL    HW113599   3.908   4.101   4.410
 4525SOL    HW213600   3.978   4.035   4.542
 4526SOL     OW13601   4.546   4.726   5.096
 4526SOL    HW113602   4.586   4.725   5.004
 4526SOL    HW213603   4.556   4.818   5.136
 4527SOL     OW13604   4.640   4.634   4.015
 4527SOL    HW113605   4.703   4.672   3.947
 4527SOL    HW213606   4.680   4.551   4.054
 4528SOL     OW13607   5.228   5.331   3.768
 4528SOL    HW113608   5.136   5.368   3.775
 4528SOL    HW213609   5.266   5.351   3.678
 4529SOL     OW13610   4.096   5.012   5.214
 4529SOL    HW113611   4.083   5.105   5.180
 4529SOL    HW213612   4.012   4.960   5.201
 4530SOL     OW13613   4.763   4.822   4.420
 4530SOL    HW113614   4.693   4.775   4.474
 4530SOL    HW213615   4.822   4.754   4.377
 4531SOL     OW13616   4.738   3.960   4.695
 4531SOL    HW113617   4.730   3.924   4.602
 4531SOL    HW213618   4.736   3.884   4.760
 4532SOL     OW13619   4.396   3.927   5.213
 4532SOL    HW113620   4.486   3.911   5.173
 4532SOL    HW213621   4.404   3.932   5.312
 4533SOL     OW13622   3.799   4.069   3.757
 4533SOL    HW113623   3.707   4.041   3.728
 4533SOL    HW213624   3.830   4.146   3.701
 4534SOL     OW13625   3.796   3.890   4.042
 4534SOL    HW113626   3.779   3.973   3.988
 4534SOL    HW213627   3.886   3.853   4.020
 4535SOL     OW13628   4.337   4.566   5.155
 4535SOL    HW113629   4.393   4.647   5.138
 4535SOL    HW213630   4.396   4.486   5.158
 4536SOL     OW13631   4.949   4.049   4.173
 4536SOL    HW113632   5.014   3.975   4.162
 4536SOL    HW213633   4.969   4.099   4.257
 4537SOL     OW13634   4.318   4.469   4.376
 4537SOL    HW113635   4.368   4.554   4.357
 4537SOL    HW213636   4.230   4.471   4.328
 4538SOL     OW13637   4.583   5.098   3.740
 4538SOL    HW113638   4.537   5.113   3.828
 4538SOL    HW213639   4.627   5.183   3.710
 4539SOL     OW13640   4.583   4.680   4.585
 4539SOL    HW113641   4.637   4.611   4.633
 4539SOL    HW213642   4.551   4.749   4.651
 4540SOL     OW13643   4.807   4.708   3.811
 4540SOL    HW113644   4.784   4.761   3.729
 4540SOL    HW213645   4.888   4.652   3.792
 4541SOL     OW13646   3.803   4.964   4.377
 4541SOL    HW113647   3.802   4.917   4.465
 4541SOL    HW213648   3.885   4.936   4.326
 4542SOL     OW13649   4.152   4.148   4.244
 4542SOL    HW113650   4.182   4.076   4.182
 4542SOL    HW213651   4.113   4.108   4.327
 4543SOL     OW13652   4.041   4.271   5.004
 4543SOL    HW113653   4.079   4.212   5.076
 4543SOL    HW213654   4.081   4.245   4.916
 4544SOL     OW13655   5.148   3.938   4.836
 4544SOL    HW113656   5.200   3.873   4.891
 4544SOL    HW213657   5.099   4.001   4.897
 4545SOL     OW13658   4.725   3.758   4.878
 4545SOL    HW113659   4.662   3.686   4.847
 4545SOL    HW213660   4.818   3.722   4.878
 4546SOL     OW13661   4.494   5.054   4.025
 4546SOL    HW113662   4.448   4.967   4.042
 4546SOL    HW213663   4.585   5.051   4.066
 4547SOL     OW13664   5.076   3.776   3.892
 4547SOL    HW113665   5.111   3.735   3.808
 4547SOL    HW213666   4.986   3.738   3.912
 4548SOL     OW13667   3.763   4.801   4.024
 4548SOL    HW113668   3.862   4.790   4.015
 4548SOL    HW213669   3.723   4.715   4.056
   5.18218   5.18218   5.18218
