mobley_7912193_GMX.gro created by acpype (v: 2023.10.27) on Thu May 21 00:02:07 2026
   28
    1MOL     C1    1   2.492   2.546   2.256
    1MOL     C2    2   2.398   2.600   2.472
    1MOL     C3    3   2.365   2.557   2.199
    1MOL     C4    4   2.271   2.611   2.415
    1MOL     C5    5   2.508   2.568   2.393
    1MOL     C6    6   2.255   2.590   2.278
    1MOL     C7    7   2.643   2.556   2.454
    1MOL     C8    8   2.840   2.634   3.033
    1MOL     C9    9   2.865   2.599   2.887
    1MOL    C10   10   2.735   2.604   2.805
    1MOL    C11   11   2.761   2.573   2.658
    1MOL     O1   12   2.743   2.528   2.391
    1MOL     O2   13   2.131   2.600   2.222
    1MOL     O3   14   2.637   2.581   2.588
    1MOL     H1   15   2.577   2.520   2.194
    1MOL     H2   16   2.410   2.618   2.579
    1MOL     H3   17   2.353   2.540   2.092
    1MOL     H4   18   2.186   2.637   2.477
    1MOL     H5   19   2.767   2.566   3.078
    1MOL     H6   20   2.932   2.628   3.091
    1MOL     H7   21   2.801   2.736   3.041
    1MOL     H8   22   2.938   2.669   2.845
    1MOL     H9   23   2.908   2.499   2.881
    1MOL    H10   24   2.662   2.533   2.845
    1MOL    H11   25   2.689   2.703   2.814
    1MOL    H12   26   2.830   2.646   2.615
    1MOL    H13   27   2.801   2.473   2.646
    1MOL    H14   28   2.066   2.623   2.289
   5.18218   5.18218   5.18218
