; mobley_4364398_GMX.top created by acpype (v: 2023.10.27) on Thu May 21 00:01:26 2026

[ defaults ]
; nbfunc        comb-rule       gen-pairs       fudgeLJ fudgeQQ
1               2               yes             0.5     0.8333333333

; Include mobley_4364398_GMX.itp topology
#include "mobley_4364398_GMX.itp"

; Ligand position restraints
#ifdef POSRES_LIG
#include "posre_mobley_4364398.itp"
#endif

[ system ]
mobley_4364398 in water

[ molecules ]
; Compound        nmols
 mobley_4364398   1     
SOL              2610
