; mobley_4364398_GMX_OPLS.itp created by acpype (v: 2023.10.27) on Thu May 21 00:01:26 2026

; For OPLS atomtypes manual fine tuning
; AC_at:OPLS_at:OPLScode: Possible_Alternatives (see ffoplsaa.atp and ffoplsaanb.itp)
; c3:CT:opls_135: ['136', '137', '149', '157', '158', '206', '209', '210', '223B', '224B', '245', '246', '274', '283', '284', '285', '292', '292B', '293B', '296', '307', '308', '505']
; i:x:opls_x: []
; h1:HC:opls_140: []

[ moleculetype ]
;name            nrexcl
 mobley_4364398   3

[ atoms ]
;   nr  type  resi  res  atom  cgnr     charge      mass       ; qtot   bond_type
     1 opls_135     1   MOL    C1    1     0.035800     12.01100 ; qtot  0.036  CT  
     2 opls_x     1   MOL    I1    2    -0.241900      0.00000 ; qtot -0.206  x   
     3 opls_140     1   MOL    H1    3     0.068700      1.00800 ; qtot -0.137  HC  
     4 opls_140     1   MOL    H2    4     0.068700      1.00800 ; qtot -0.069  HC  
     5 opls_140     1   MOL    H3    5     0.068700      1.00800 ; qtot  0.000  HC  

[ bonds ]
;   ai     aj funct   r             k
     1      2   1 ;    2.2260e-01    7.7295e+04 ;     C1 - I1         CT - x     
     1      3   1 ;    1.0969e-01    2.8804e+05 ;     C1 - H1         CT - HC    
     1      4   1 ;    1.0969e-01    2.8804e+05 ;     C1 - H2         CT - HC    
     1      5   1 ;    1.0969e-01    2.8804e+05 ;     C1 - H3         CT - HC    

[ angles ]
;   ai     aj     ak    funct   theta         cth
     2      1      3      1 ;    1.0437e+02    3.1313e+02 ;     I1 - C1   - H1        x -   CT - HC  
     2      1      4      1 ;    1.0437e+02    3.1313e+02 ;     I1 - C1   - H2        x -   CT - HC  
     2      1      5      1 ;    1.0437e+02    3.1313e+02 ;     I1 - C1   - H3        x -   CT - HC  
     3      1      4      1 ;    1.0855e+02    2.9824e+02 ;     H1 - C1   - H2       HC -   CT - HC  
     3      1      5      1 ;    1.0855e+02    2.9824e+02 ;     H1 - C1   - H3       HC -   CT - HC  
     4      1      5      1 ;    1.0855e+02    2.9824e+02 ;     H2 - C1   - H3       HC -   CT - HC  
