; mobley_4364398_GMX_OPLS.top created by acpype (v: 2023.10.27) on Thu May 21 00:01:26 2026

; Include forcefield parameters
#include "ffoplsaa.itp"

; Include mobley_4364398_GMX.itp topology
#include "mobley_4364398_GMX.itp"

; Ligand position restraints
#ifdef POSRES_LIG
#include "posre_mobley_4364398.itp"
#endif

[ system ]
 mobley_4364398

[ molecules ]
; Compound        nmols
 mobley_4364398   1     
