; mobley_4506634_GMX.itp created by acpype (v: 2023.10.27) on Wed May 20 23:53:48 2026

[ atomtypes ]
;name   bond_type     mass     charge   ptype   sigma         epsilon       Amb
 c3       c3          0.00000  0.00000   A     3.39771e-01   4.51035e-01 ; 1.91  0.1078
 f        f           0.00000  0.00000   A     3.03422e-01   3.48109e-01 ; 1.70  0.0832
 cl       cl          0.00000  0.00000   A     3.46595e-01   1.10374e+00 ; 1.95  0.2638
 br       br          0.00000  0.00000   A     3.61259e-01   1.64515e+00 ; 2.03  0.3932
 h2       h2          0.00000  0.00000   A     2.24382e-01   8.70272e-02 ; 1.26  0.0208

[ moleculetype ]
;name            nrexcl
 mobley_4506634   3

[ atoms ]
;   nr  type  resi  res  atom  cgnr     charge      mass       ; qtot   bond_type
     1   c3     1   MOL    C1    1     0.022100     12.01000 ; qtot 0.022
     2   c3     1   MOL    C2    2     0.637900     12.01000 ; qtot 0.660
     3    f     1   MOL    F1    3    -0.218300     19.00000 ; qtot 0.442
     4    f     1   MOL    F2    4    -0.218300     19.00000 ; qtot 0.223
     5    f     1   MOL    F3    5    -0.218300     19.00000 ; qtot 0.005
     6   cl     1   MOL   CL1    6    -0.076400     35.45000 ; qtot -0.071
     7   br     1   MOL   BR1    7    -0.059400     79.90000 ; qtot -0.131
     8   h2     1   MOL    H1    8     0.130700      1.00800 ; qtot 0.000

[ bonds ]
;   ai     aj funct   r             k
     1      2   1    1.5354e-01    1.9154e+05 ;     C1 - C2    
     1      6   1    1.8092e-01    1.3724e+05 ;     C1 - CL1   
     1      7   1    1.9805e-01    1.0319e+05 ;     C1 - BR1   
     1      8   1    1.0950e-01    2.9039e+05 ;     C1 - H1    
     2      3   1    1.3512e-01    2.7973e+05 ;     C2 - F1    
     2      4   1    1.3512e-01    2.7973e+05 ;     C2 - F2    
     2      5   1    1.3512e-01    2.7973e+05 ;     C2 - F3    

[ pairs ]
;   ai     aj    funct
     6      3      1 ;    CL1 - F1    
     6      4      1 ;    CL1 - F2    
     6      5      1 ;    CL1 - F3    
     7      3      1 ;    BR1 - F1    
     7      4      1 ;    BR1 - F2    
     7      5      1 ;    BR1 - F3    
     8      3      1 ;     H1 - F1    
     8      4      1 ;     H1 - F2    
     8      5      1 ;     H1 - F3    

[ angles ]
;   ai     aj     ak    funct   theta         cth
     1      2      3      1    1.0948e+02    6.6408e+02 ;     C1 - C2     - F1    
     1      2      4      1    1.0948e+02    6.6408e+02 ;     C1 - C2     - F2    
     1      2      5      1    1.0948e+02    6.6408e+02 ;     C1 - C2     - F3    
     2      1      6      1    1.1039e+02    5.3254e+02 ;     C2 - C1     - CL1   
     2      1      7      1    1.1047e+02    5.1020e+02 ;     C2 - C1     - BR1   
     2      1      8      1    1.1042e+02    3.6091e+02 ;     C2 - C1     - H1    
     3      2      4      1    1.0737e+02    8.9437e+02 ;     F1 - C2     - F2    
     3      2      5      1    1.0737e+02    8.9437e+02 ;     F1 - C2     - F3    
     4      2      5      1    1.0737e+02    8.9437e+02 ;     F2 - C2     - F3    
     6      1      7      1    1.0900e+02    5.6919e+02 ;    CL1 - C1     - BR1   
     6      1      8      1    1.0706e+02    3.6133e+02 ;    CL1 - C1     - H1    
     7      1      8      1    1.0695e+02    3.3505e+02 ;    BR1 - C1     - H1    

[ dihedrals ] ; propers
; for gromacs 4.5 or higher, using funct 9
;    i      j      k      l   func   phase     kd      pn
     6      1      2      3      9     0.00   0.65084   3 ;    CL1-    C1-    C2-    F1
     6      1      2      4      9     0.00   0.65084   3 ;    CL1-    C1-    C2-    F2
     6      1      2      5      9     0.00   0.65084   3 ;    CL1-    C1-    C2-    F3
     7      1      2      3      9     0.00   0.65084   3 ;    BR1-    C1-    C2-    F1
     7      1      2      4      9     0.00   0.65084   3 ;    BR1-    C1-    C2-    F2
     7      1      2      5      9     0.00   0.65084   3 ;    BR1-    C1-    C2-    F3
     8      1      2      3      9     0.00   0.65084   3 ;     H1-    C1-    C2-    F1
     8      1      2      4      9     0.00   0.65084   3 ;     H1-    C1-    C2-    F2
     8      1      2      5      9     0.00   0.65084   3 ;     H1-    C1-    C2-    F3
