; mobley_4506634_GMX_OPLS.top created by acpype (v: 2023.10.27) on Wed May 20 23:53:48 2026

; Include forcefield parameters
#include "ffoplsaa.itp"

; Include mobley_4506634_GMX.itp topology
#include "mobley_4506634_GMX.itp"

; Ligand position restraints
#ifdef POSRES_LIG
#include "posre_mobley_4506634.itp"
#endif

[ system ]
 mobley_4506634

[ molecules ]
; Compound        nmols
 mobley_4506634   1     
