halothane
     8
   0.0000000  -0.0000000   0.0000000  -0.3430000  -0.5420000  -1.3670000
  -0.0820000  -1.8680000  -1.4370000  -1.6450000  -0.3640000  -1.6760000
   0.3960000   0.0570000  -2.3290000  -0.9660000  -0.7880000   1.2620000
  -0.3210000   1.9190000   0.0590000   1.0580000  -0.1460000   0.2310000
