; mobley_4506634_GMX_OPLS.itp created by acpype (v: 2023.10.27) on Wed May 20 23:53:48 2026

; For OPLS atomtypes manual fine tuning
; AC_at:OPLS_at:OPLScode: Possible_Alternatives (see ffoplsaa.atp and ffoplsaanb.itp)
; c3:CT:opls_135: ['136', '137', '149', '157', '158', '206', '209', '210', '223B', '224B', '245', '246', '274', '283', '284', '285', '292', '292B', '293B', '296', '307', '308', '505']
; f:x:opls_x: []
; cl:x:opls_x: []
; br:x:opls_x: []
; h2:x:opls_x: []

[ moleculetype ]
;name            nrexcl
 mobley_4506634   3

[ atoms ]
;   nr  type  resi  res  atom  cgnr     charge      mass       ; qtot   bond_type
     1 opls_135     1   MOL    C1    1     0.022100     12.01100 ; qtot  0.022  CT  
     2 opls_135     1   MOL    C2    2     0.637900     12.01100 ; qtot  0.660  CT  
     3 opls_x     1   MOL    F1    3    -0.218300      0.00000 ; qtot  0.442  x   
     4 opls_x     1   MOL    F2    4    -0.218300      0.00000 ; qtot  0.223  x   
     5 opls_x     1   MOL    F3    5    -0.218300      0.00000 ; qtot  0.005  x   
     6 opls_x     1   MOL   CL1    6    -0.076400      0.00000 ; qtot -0.071  x   
     7 opls_x     1   MOL   BR1    7    -0.059400      0.00000 ; qtot -0.131  x   
     8 opls_x     1   MOL    H1    8     0.130700      0.00000 ; qtot  0.000  x   

[ bonds ]
;   ai     aj funct   r             k
     1      2   1 ;    1.5354e-01    1.9154e+05 ;     C1 - C2         CT - CT    
     1      6   1 ;    1.8092e-01    1.3724e+05 ;     C1 - CL1        CT - x     
     1      7   1 ;    1.9805e-01    1.0319e+05 ;     C1 - BR1        CT - x     
     1      8   1 ;    1.0950e-01    2.9039e+05 ;     C1 - H1         CT - x     
     2      3   1 ;    1.3512e-01    2.7973e+05 ;     C2 - F1         CT - x     
     2      4   1 ;    1.3512e-01    2.7973e+05 ;     C2 - F2         CT - x     
     2      5   1 ;    1.3512e-01    2.7973e+05 ;     C2 - F3         CT - x     

[ pairs ]
;   ai     aj    funct
     6      3      1 ;    CL1 - F1    
     6      4      1 ;    CL1 - F2    
     6      5      1 ;    CL1 - F3    
     7      3      1 ;    BR1 - F1    
     7      4      1 ;    BR1 - F2    
     7      5      1 ;    BR1 - F3    
     8      3      1 ;     H1 - F1    
     8      4      1 ;     H1 - F2    
     8      5      1 ;     H1 - F3    

[ angles ]
;   ai     aj     ak    funct   theta         cth
     1      2      3      1 ;    1.0948e+02    6.6408e+02 ;     C1 - C2   - F1       CT -   CT - x   
     1      2      4      1 ;    1.0948e+02    6.6408e+02 ;     C1 - C2   - F2       CT -   CT - x   
     1      2      5      1 ;    1.0948e+02    6.6408e+02 ;     C1 - C2   - F3       CT -   CT - x   
     2      1      6      1 ;    1.1039e+02    5.3254e+02 ;     C2 - C1   - CL1      CT -   CT - x   
     2      1      7      1 ;    1.1047e+02    5.1020e+02 ;     C2 - C1   - BR1      CT -   CT - x   
     2      1      8      1 ;    1.1042e+02    3.6091e+02 ;     C2 - C1   - H1       CT -   CT - x   
     3      2      4      1 ;    1.0737e+02    8.9437e+02 ;     F1 - C2   - F2        x -   CT - x   
     3      2      5      1 ;    1.0737e+02    8.9437e+02 ;     F1 - C2   - F3        x -   CT - x   
     4      2      5      1 ;    1.0737e+02    8.9437e+02 ;     F2 - C2   - F3        x -   CT - x   
     6      1      7      1 ;    1.0900e+02    5.6919e+02 ;    CL1 - C1   - BR1       x -   CT - x   
     6      1      8      1 ;    1.0706e+02    3.6133e+02 ;    CL1 - C1   - H1        x -   CT - x   
     7      1      8      1 ;    1.0695e+02    3.3505e+02 ;    BR1 - C1   - H1        x -   CT - x   

[ dihedrals ] ; propers
; for gromacs 4.5 or higher, using funct 9
;    i      j      k      l   func   phase     kd      pn
     6      1      2      3      9 ;     0.00   0.65084   3 ;    CL1-    C1-    C2-    F1
     6      1      2      4      9 ;     0.00   0.65084   3 ;    CL1-    C1-    C2-    F2
     6      1      2      5      9 ;     0.00   0.65084   3 ;    CL1-    C1-    C2-    F3
     7      1      2      3      9 ;     0.00   0.65084   3 ;    BR1-    C1-    C2-    F1
     7      1      2      4      9 ;     0.00   0.65084   3 ;    BR1-    C1-    C2-    F2
     7      1      2      5      9 ;     0.00   0.65084   3 ;    BR1-    C1-    C2-    F3
     8      1      2      3      9 ;     0.00   0.65084   3 ;     H1-    C1-    C2-    F1
     8      1      2      4      9 ;     0.00   0.65084   3 ;     H1-    C1-    C2-    F2
     8      1      2      5      9 ;     0.00   0.65084   3 ;     H1-    C1-    C2-    F3
