%VERSION  VERSION_STAMP = V0001.000  DATE = 05/20/26  23:53:49                  
%FLAG TITLE                                                                     
%FORMAT(20a4)                                                                   
halothane                                                                       
%FLAG POINTERS                                                                  
%FORMAT(10I8)                                                                   
       8       5       1       6       3       9       3       6       0       0
      29       1       6       9       6       5       8       1       5       0
       0       0       0       0       0       0       0       0       8       0
       0
%FLAG ATOM_NAME                                                                 
%FORMAT(20a4)                                                                   
C1  C2  F1  F2  F3  Cl1 Br1 H1  
%FLAG CHARGE                                                                    
%FORMAT(5E16.8)                                                                 
  4.02712830E-01  1.16240052E+01 -3.97792809E+00 -3.97792809E+00 -3.97792809E+00
 -1.39218372E+00 -1.08240462E+00  2.38165461E+00
%FLAG ATOMIC_NUMBER                                                             
%FORMAT(10I8)                                                                   
       6       6       9       9       9      17      35       1
%FLAG MASS                                                                      
%FORMAT(5E16.8)                                                                 
  1.20100000E+01  1.20100000E+01  1.90000000E+01  1.90000000E+01  1.90000000E+01
  3.54500000E+01  7.99000000E+01  1.00800000E+00
%FLAG ATOM_TYPE_INDEX                                                           
%FORMAT(10I8)                                                                   
       1       1       2       2       2       3       4       5
%FLAG NUMBER_EXCLUDED_ATOMS                                                     
%FORMAT(10I8)                                                                   
       7       6       5       4       3       2       1       1
%FLAG NONBONDED_PARM_INDEX                                                      
%FORMAT(10I8)                                                                   
       1       2       4       7      11       2       3       5       8      12
       4       5       6       9      13       7       8       9      10      14
      11      12      13      14      15
%FLAG RESIDUE_LABEL                                                             
%FORMAT(20a4)                                                                   
MOL 
%FLAG RESIDUE_POINTER                                                           
%FORMAT(10I8)                                                                   
       1
%FLAG BOND_FORCE_CONSTANT                                                       
%FORMAT(5E16.8)                                                                 
  2.28890000E+02  1.64000000E+02  1.23310000E+02  3.47020000E+02  3.34280000E+02
%FLAG BOND_EQUIL_VALUE                                                          
%FORMAT(5E16.8)                                                                 
  1.53540000E+00  1.80920000E+00  1.98050000E+00  1.09500000E+00  1.35120000E+00
%FLAG ANGLE_FORCE_CONSTANT                                                      
%FORMAT(5E16.8)                                                                 
  7.93600000E+01  6.36400000E+01  6.09700000E+01  4.31300000E+01  1.06880000E+02
  6.80200000E+01  4.31800000E+01  4.00400000E+01
%FLAG ANGLE_EQUIL_VALUE                                                         
%FORMAT(5E16.8)                                                                 
  1.91078728E+00  1.92666979E+00  1.92806605E+00  1.92719339E+00  1.87396082E+00
  1.90240970E+00  1.86855030E+00  1.86663044E+00
%FLAG DIHEDRAL_FORCE_CONSTANT                                                   
%FORMAT(5E16.8)                                                                 
  1.55555556E-01
%FLAG DIHEDRAL_PERIODICITY                                                      
%FORMAT(5E16.8)                                                                 
  3.00000000E+00
%FLAG DIHEDRAL_PHASE                                                            
%FORMAT(5E16.8)                                                                 
  0.00000000E+00
%FLAG SCEE_SCALE_FACTOR                                                         
%FORMAT(5E16.8)                                                                 
  1.20000000E+00
%FLAG SCNB_SCALE_FACTOR                                                         
%FORMAT(5E16.8)                                                                 
  2.00000000E+00
%FLAG SOLTY                                                                     
%FORMAT(5E16.8)                                                                 
  0.00000000E+00  0.00000000E+00  0.00000000E+00  0.00000000E+00  0.00000000E+00
%FLAG LENNARD_JONES_ACOEF                                                       
%FORMAT(5E16.8)                                                                 
  1.02073671E+06  4.63627012E+05  2.02652992E+05  1.80018612E+06  8.23189596E+05
  3.17107030E+06  2.83242404E+06  1.31350959E+06  4.97706594E+06  7.77148140E+06
  4.80619274E+04  1.89874158E+04  8.68545099E+04  1.43753280E+05  1.35510742E+03
%FLAG LENNARD_JONES_BCOEF                                                       
%FORMAT(5E16.8)                                                                 
  6.63431737E+02  4.19082844E+02  2.59697739E+02  1.10195051E+03  6.98440575E+02
  1.82923847E+03  1.52727485E+03  9.74834359E+02  2.53214615E+03  3.49613872E+03
  9.54115851E+01  5.62094831E+01  1.60420813E+02  2.28038454E+02  1.06181419E+01
%FLAG BONDS_INC_HYDROGEN                                                        
%FORMAT(10I8)                                                                   
       0      21       4
%FLAG BONDS_WITHOUT_HYDROGEN                                                    
%FORMAT(10I8)                                                                   
       0       3       1       0      15       2       0      18       3       3
       6       5       3       9       5       3      12       5
%FLAG ANGLES_INC_HYDROGEN                                                       
%FORMAT(10I8)                                                                   
       3       0      21       4      15       0      21       7      18       0
      21       8
%FLAG ANGLES_WITHOUT_HYDROGEN                                                   
%FORMAT(10I8)                                                                   
       0       3       6       1       0       3       9       1       0       3
      12       1       3       0      15       2       3       0      18       3
       6       3       9       5       6       3      12       5       9       3
      12       5      15       0      18       6
%FLAG DIHEDRALS_INC_HYDROGEN                                                    
%FORMAT(10I8)                                                                   
      21       0       3       6       1      21       0       3       9       1
      21       0       3      12       1
%FLAG DIHEDRALS_WITHOUT_HYDROGEN                                                
%FORMAT(10I8)                                                                   
      15       0       3       6       1      18       0       3       6       1
      15       0       3       9       1      18       0       3       9       1
      15       0       3      12       1      18       0       3      12       1
%FLAG EXCLUDED_ATOMS_LIST                                                       
%FORMAT(10I8)                                                                   
       2       3       4       5       6       7       8       3       4       5
       6       7       8       4       5       6       7       8       5       6
       7       8       6       7       8       7       8       8       0
%FLAG HBOND_ACOEF                                                               
%FORMAT(5E16.8)                                                                 

%FLAG HBOND_BCOEF                                                               
%FORMAT(5E16.8)                                                                 

%FLAG HBCUT                                                                     
%FORMAT(5E16.8)                                                                 

%FLAG AMBER_ATOM_TYPE                                                           
%FORMAT(20a4)                                                                   
c3  c3  f   f   f   cl  br  h2  
%FLAG TREE_CHAIN_CLASSIFICATION                                                 
%FORMAT(20a4)                                                                   
BLA BLA BLA BLA BLA BLA BLA BLA 
%FLAG JOIN_ARRAY                                                                
%FORMAT(10I8)                                                                   
       0       0       0       0       0       0       0       0
%FLAG IROTAT                                                                    
%FORMAT(10I8)                                                                   
       0       0       0       0       0       0       0       0
%FLAG RADIUS_SET                                                                
%FORMAT(1a80)                                                                   
modified Bondi radii (mbondi)                                                   
%FLAG RADII                                                                     
%FORMAT(5E16.8)                                                                 
  1.70000000E+00  1.70000000E+00  1.50000000E+00  1.50000000E+00  1.50000000E+00
  1.70000000E+00  1.50000000E+00  1.30000000E+00
%FLAG SCREEN                                                                    
%FORMAT(5E16.8)                                                                 
  7.20000000E-01  7.20000000E-01  8.80000000E-01  8.80000000E-01  8.80000000E-01
  8.00000000E-01  8.00000000E-01  8.50000000E-01
%FLAG IPOL                                                                      
%FORMAT(1I8)                                                                    
       0
