mobley_4506634_GMX.gro created by acpype (v: 2023.10.27) on Wed May 20 23:53:48 2026
 8
    1  MOL   C1    1   0.000  -0.000   0.000
    1  MOL   C2    2  -0.034  -0.054  -0.137
    1  MOL   F1    3  -0.008  -0.187  -0.144
    1  MOL   F2    4  -0.165  -0.036  -0.168
    1  MOL   F3    5   0.040   0.006  -0.233
    1  MOL  CL1    6  -0.097  -0.079   0.126
    1  MOL  BR1    7  -0.032   0.192   0.006
    1  MOL   H1    8   0.106  -0.015   0.023
    5.40600     7.57400     7.18200
