mobley_3047364_GMX.gro created by acpype (v: 2023.10.27) on Wed May 20 23:45:41 2026
   32
    1MOL     C1    1   2.459   2.576   2.422
    1MOL     C2    2   2.580   2.599   2.611
    1MOL     C3    3   2.643   2.454   2.453
    1MOL     C4    4   2.237   2.665   2.139
    1MOL     C5    5   2.560   2.483   2.896
    1MOL     C6    6   2.695   2.687   2.951
    1MOL     C7    7   2.887   2.340   2.513
    1MOL     C8    8   2.363   2.612   2.205
    1MOL     C9    9   2.656   2.588   2.841
    1MOL     N1   10   2.475   2.637   2.539
    1MOL     N2   11   2.541   2.484   2.374
    1MOL     N3   12   2.667   2.508   2.572
    1MOL     N4   13   2.347   2.616   2.349
    1MOL     N5   14   2.595   2.663   2.733
    1MOL     S1   15   2.754   2.330   2.391
    1MOL     H1   16   2.150   2.605   2.167
    1MOL     H2   17   2.217   2.768   2.168
    1MOL     H3   18   2.247   2.662   2.030
    1MOL     H4   19   2.466   2.529   2.930
    1MOL     H5   20   2.534   2.408   2.820
    1MOL     H6   21   2.605   2.430   2.981
    1MOL     H7   22   2.607   2.740   2.990
    1MOL     H8   23   2.764   2.762   2.913
    1MOL     H9   24   2.743   2.636   3.035
    1MOL    H10   25   2.966   2.270   2.486
    1MOL    H11   26   2.850   2.313   2.613
    1MOL    H12   27   2.929   2.441   2.516
    1MOL    H13   28   2.448   2.673   2.174
    1MOL    H14   29   2.380   2.509   2.171
    1MOL    H15   30   2.749   2.539   2.808
    1MOL    H16   31   2.318   2.705   2.388
    1MOL    H17   32   2.506   2.708   2.754
   5.12103   5.12103   5.12103
