; mobley_7360181_GMX_OPLS.top created by acpype (v: 2023.10.27) on Thu May 21 00:04:33 2026

; Include forcefield parameters
#include "ffoplsaa.itp"

; Include mobley_7360181_GMX.itp topology
#include "mobley_7360181_GMX.itp"

; Ligand position restraints
#ifdef POSRES_LIG
#include "posre_mobley_7360181.itp"
#endif

[ system ]
 mobley_7360181

[ molecules ]
; Compound        nmols
 mobley_7360181   1     
