trimethyl
    20
  -0.0480000  -0.9850000  -0.3150000  -2.7160000   0.3590000   1.3310000
  -2.5540000  -3.7030000   1.4930000  -1.3550000  -1.5980000   1.6330000
  -0.1310000  -2.0160000   2.4570000  -1.1220000  -1.7450000   0.2210000
  -1.6020000  -0.2210000   1.9980000  -2.4890000  -2.3940000   2.0420000
   0.9460000  -1.2600000   2.1410000   0.2100000  -3.3040000   2.2280000
  -0.3480000  -1.8860000   3.7840000   0.0340000  -1.1750000  -1.3870000
   0.8820000  -1.2630000   0.1880000  -0.2460000   0.0760000  -0.1490000
  -2.8390000   1.3950000   1.6570000  -3.6180000  -0.2150000   1.5580000
  -2.5350000   0.3380000   0.2530000  -3.4460000  -4.2120000   1.8680000
  -1.6580000  -4.2620000   1.7750000  -2.6090000  -3.6300000   0.4050000
