; mobley_7360181_GMX_OPLS.itp created by acpype (v: 2023.10.27) on Thu May 21 00:04:33 2026

; For OPLS atomtypes manual fine tuning
; AC_at:OPLS_at:OPLScode: Possible_Alternatives (see ffoplsaa.atp and ffoplsaanb.itp)
; c3:CT:opls_135: ['136', '137', '149', '157', '158', '206', '209', '210', '223B', '224B', '245', '246', '274', '283', '284', '285', '292', '292B', '293B', '296', '307', '308', '505']
; os:x:opls_x: []
; f:x:opls_x: []
; h1:HC:opls_140: []

[ moleculetype ]
;name            nrexcl
 mobley_7360181   3

[ atoms ]
;   nr  type  resi  res  atom  cgnr     charge      mass       ; qtot   bond_type
     1 opls_135     1   MOL    C1    1     0.133033     12.01100 ; qtot  0.133  CT  
     2 opls_135     1   MOL    C2    2     0.133033     12.01100 ; qtot  0.266  CT  
     3 opls_135     1   MOL    C3    3     0.133033     12.01100 ; qtot  0.399  CT  
     4 opls_135     1   MOL    C4    4     0.512400     12.01100 ; qtot  0.911  CT  
     5 opls_135     1   MOL    C5    5     0.616899     12.01100 ; qtot  1.528  CT  
     6 opls_x     1   MOL    O1    6    -0.436933      0.00000 ; qtot  1.091  x   
     7 opls_x     1   MOL    O2    7    -0.436933      0.00000 ; qtot  0.655  x   
     8 opls_x     1   MOL    O3    8    -0.436933      0.00000 ; qtot  0.218  x   
     9 opls_x     1   MOL    F1    9    -0.227633      0.00000 ; qtot -0.010  x   
    10 opls_x     1   MOL    F2   10    -0.227633      0.00000 ; qtot -0.238  x   
    11 opls_x     1   MOL    F3   11    -0.227633      0.00000 ; qtot -0.465  x   
    12 opls_140     1   MOL    H1   12     0.051700      1.00800 ; qtot -0.414  HC  
    13 opls_140     1   MOL    H2   13     0.051700      1.00800 ; qtot -0.362  HC  
    14 opls_140     1   MOL    H3   14     0.051700      1.00800 ; qtot -0.310  HC  
    15 opls_140     1   MOL    H4   15     0.051700      1.00800 ; qtot -0.258  HC  
    16 opls_140     1   MOL    H5   16     0.051700      1.00800 ; qtot -0.207  HC  
    17 opls_140     1   MOL    H6   17     0.051700      1.00800 ; qtot -0.155  HC  
    18 opls_140     1   MOL    H7   18     0.051700      1.00800 ; qtot -0.103  HC  
    19 opls_140     1   MOL    H8   19     0.051700      1.00800 ; qtot -0.052  HC  
    20 opls_140     1   MOL    H9   20     0.051700      1.00800 ; qtot  0.000  HC  

[ bonds ]
;   ai     aj funct   r             k
     1      6   1 ;    1.4273e-01    2.3620e+05 ;     C1 - O1         CT - x     
     1     12   1 ;    1.0969e-01    2.8804e+05 ;     C1 - H1         CT - HC    
     1     13   1 ;    1.0969e-01    2.8804e+05 ;     C1 - H2         CT - HC    
     1     14   1 ;    1.0969e-01    2.8804e+05 ;     C1 - H3         CT - HC    
     2      7   1 ;    1.4273e-01    2.3620e+05 ;     C2 - O2         CT - x     
     2     15   1 ;    1.0969e-01    2.8804e+05 ;     C2 - H4         CT - HC    
     2     16   1 ;    1.0969e-01    2.8804e+05 ;     C2 - H5         CT - HC    
     2     17   1 ;    1.0969e-01    2.8804e+05 ;     C2 - H6         CT - HC    
     3      8   1 ;    1.4273e-01    2.3620e+05 ;     C3 - O3         CT - x     
     3     18   1 ;    1.0969e-01    2.8804e+05 ;     C3 - H7         CT - HC    
     3     19   1 ;    1.0969e-01    2.8804e+05 ;     C3 - H8         CT - HC    
     3     20   1 ;    1.0969e-01    2.8804e+05 ;     C3 - H9         CT - HC    
     4      5   1 ;    1.5354e-01    1.9154e+05 ;     C4 - C5         CT - CT    
     4      6   1 ;    1.4273e-01    2.3620e+05 ;     C4 - O1         CT - x     
     4      7   1 ;    1.4273e-01    2.3620e+05 ;     C4 - O2         CT - x     
     4      8   1 ;    1.4273e-01    2.3620e+05 ;     C4 - O3         CT - x     
     5      9   1 ;    1.3512e-01    2.7973e+05 ;     C5 - F1         CT - x     
     5     10   1 ;    1.3512e-01    2.7973e+05 ;     C5 - F2         CT - x     
     5     11   1 ;    1.3512e-01    2.7973e+05 ;     C5 - F3         CT - x     

[ pairs ]
;   ai     aj    funct
     1      5      1 ;     C1 - C5    
     1      7      1 ;     C1 - O2    
     1      8      1 ;     C1 - O3    
     2      5      1 ;     C2 - C5    
     2      6      1 ;     C2 - O1    
     2      8      1 ;     C2 - O3    
     3      5      1 ;     C3 - C5    
     3      6      1 ;     C3 - O1    
     3      7      1 ;     C3 - O2    
     4     15      1 ;     C4 - H4    
     4     16      1 ;     C4 - H5    
     4     17      1 ;     C4 - H6    
     4     18      1 ;     C4 - H7    
     4     19      1 ;     C4 - H8    
     4     20      1 ;     C4 - H9    
     6      9      1 ;     O1 - F1    
     6     10      1 ;     O1 - F2    
     6     11      1 ;     O1 - F3    
     7      9      1 ;     O2 - F1    
     7     10      1 ;     O2 - F2    
     7     11      1 ;     O2 - F3    
     8      9      1 ;     O3 - F1    
     8     10      1 ;     O3 - F2    
     8     11      1 ;     O3 - F3    
    12      4      1 ;     H1 - C4    
    13      4      1 ;     H2 - C4    
    14      4      1 ;     H3 - C4    

[ angles ]
;   ai     aj     ak    funct   theta         cth
     1      6      4      1 ;    1.1360e+02    7.3915e+02 ;     C1 - O1   - C4       CT -    x - CT  
     2      7      4      1 ;    1.1360e+02    7.3915e+02 ;     C2 - O2   - C4       CT -    x - CT  
     3      8      4      1 ;    1.1360e+02    7.3915e+02 ;     C3 - O3   - C4       CT -    x - CT  
     4      5      9      1 ;    1.0948e+02    6.6408e+02 ;     C4 - C5   - F1       CT -   CT - x   
     4      5     10      1 ;    1.0948e+02    6.6408e+02 ;     C4 - C5   - F2       CT -   CT - x   
     4      5     11      1 ;    1.0948e+02    6.6408e+02 ;     C4 - C5   - F3       CT -   CT - x   
     5      4      6      1 ;    1.0762e+02    6.4802e+02 ;     C5 - C4   - O1       CT -   CT - x   
     5      4      7      1 ;    1.0762e+02    6.4802e+02 ;     C5 - C4   - O2       CT -   CT - x   
     5      4      8      1 ;    1.0762e+02    6.4802e+02 ;     C5 - C4   - O3       CT -   CT - x   
     6      1     12      1 ;    1.1034e+02    4.7028e+02 ;     O1 - C1   - H1        x -   CT - HC  
     6      1     13      1 ;    1.1034e+02    4.7028e+02 ;     O1 - C1   - H2        x -   CT - HC  
     6      1     14      1 ;    1.1034e+02    4.7028e+02 ;     O1 - C1   - H3        x -   CT - HC  
     6      4      7      1 ;    1.0789e+02    8.2375e+02 ;     O1 - C4   - O2        x -   CT - x   
     6      4      8      1 ;    1.0789e+02    8.2375e+02 ;     O1 - C4   - O3        x -   CT - x   
     7      2     15      1 ;    1.1034e+02    4.7028e+02 ;     O2 - C2   - H4        x -   CT - HC  
     7      2     16      1 ;    1.1034e+02    4.7028e+02 ;     O2 - C2   - H5        x -   CT - HC  
     7      2     17      1 ;    1.1034e+02    4.7028e+02 ;     O2 - C2   - H6        x -   CT - HC  
     7      4      8      1 ;    1.0789e+02    8.2375e+02 ;     O2 - C4   - O3        x -   CT - x   
     8      3     18      1 ;    1.1034e+02    4.7028e+02 ;     O3 - C3   - H7        x -   CT - HC  
     8      3     19      1 ;    1.1034e+02    4.7028e+02 ;     O3 - C3   - H8        x -   CT - HC  
     8      3     20      1 ;    1.1034e+02    4.7028e+02 ;     O3 - C3   - H9        x -   CT - HC  
     9      5     10      1 ;    1.0737e+02    8.9437e+02 ;     F1 - C5   - F2        x -   CT - x   
     9      5     11      1 ;    1.0737e+02    8.9437e+02 ;     F1 - C5   - F3        x -   CT - x   
    10      5     11      1 ;    1.0737e+02    8.9437e+02 ;     F2 - C5   - F3        x -   CT - x   
    12      1     13      1 ;    1.0855e+02    2.9824e+02 ;     H1 - C1   - H2       HC -   CT - HC  
    12      1     14      1 ;    1.0855e+02    2.9824e+02 ;     H1 - C1   - H3       HC -   CT - HC  
    13      1     14      1 ;    1.0855e+02    2.9824e+02 ;     H2 - C1   - H3       HC -   CT - HC  
    15      2     16      1 ;    1.0855e+02    2.9824e+02 ;     H4 - C2   - H5       HC -   CT - HC  
    15      2     17      1 ;    1.0855e+02    2.9824e+02 ;     H4 - C2   - H6       HC -   CT - HC  
    16      2     17      1 ;    1.0855e+02    2.9824e+02 ;     H5 - C2   - H6       HC -   CT - HC  
    18      3     19      1 ;    1.0855e+02    2.9824e+02 ;     H7 - C3   - H8       HC -   CT - HC  
    18      3     20      1 ;    1.0855e+02    2.9824e+02 ;     H7 - C3   - H9       HC -   CT - HC  
    19      3     20      1 ;    1.0855e+02    2.9824e+02 ;     H8 - C3   - H9       HC -   CT - HC  

[ dihedrals ] ; propers
; for gromacs 4.5 or higher, using funct 9
;    i      j      k      l   func   phase     kd      pn
     1      6      4      5      9 ;     0.00   0.33472   2 ;     C1-    O1-    C4-    C5
     1      6      4      5      9 ;     0.00   3.13800   3 ;     C1-    O1-    C4-    C5
     1      6      4      5      9 ;   180.00   3.68192   1 ;     C1-    O1-    C4-    C5
     1      6      4      7      9 ;     0.00   3.55640   2 ;     C1-    O1-    C4-    O2
     1      6      4      7      9 ;     0.00   3.55640   3 ;     C1-    O1-    C4-    O2
     1      6      4      7      9 ;   180.00   1.92464   1 ;     C1-    O1-    C4-    O2
     1      6      4      8      9 ;     0.00   3.55640   2 ;     C1-    O1-    C4-    O3
     1      6      4      8      9 ;     0.00   3.55640   3 ;     C1-    O1-    C4-    O3
     1      6      4      8      9 ;   180.00   1.92464   1 ;     C1-    O1-    C4-    O3
     2      7      4      5      9 ;     0.00   0.33472   2 ;     C2-    O2-    C4-    C5
     2      7      4      5      9 ;     0.00   3.13800   3 ;     C2-    O2-    C4-    C5
     2      7      4      5      9 ;   180.00   3.68192   1 ;     C2-    O2-    C4-    C5
     2      7      4      6      9 ;     0.00   3.55640   2 ;     C2-    O2-    C4-    O1
     2      7      4      6      9 ;     0.00   3.55640   3 ;     C2-    O2-    C4-    O1
     2      7      4      6      9 ;   180.00   1.92464   1 ;     C2-    O2-    C4-    O1
     2      7      4      8      9 ;     0.00   3.55640   2 ;     C2-    O2-    C4-    O3
     2      7      4      8      9 ;     0.00   3.55640   3 ;     C2-    O2-    C4-    O3
     2      7      4      8      9 ;   180.00   1.92464   1 ;     C2-    O2-    C4-    O3
     3      8      4      5      9 ;     0.00   0.33472   2 ;     C3-    O3-    C4-    C5
     3      8      4      5      9 ;     0.00   3.13800   3 ;     C3-    O3-    C4-    C5
     3      8      4      5      9 ;   180.00   3.68192   1 ;     C3-    O3-    C4-    C5
     3      8      4      6      9 ;     0.00   3.55640   2 ;     C3-    O3-    C4-    O1
     3      8      4      6      9 ;     0.00   3.55640   3 ;     C3-    O3-    C4-    O1
     3      8      4      6      9 ;   180.00   1.92464   1 ;     C3-    O3-    C4-    O1
     3      8      4      7      9 ;     0.00   3.55640   2 ;     C3-    O3-    C4-    O2
     3      8      4      7      9 ;     0.00   3.55640   3 ;     C3-    O3-    C4-    O2
     3      8      4      7      9 ;   180.00   1.92464   1 ;     C3-    O3-    C4-    O2
     4      7      2     15      9 ;     0.00   1.41001   3 ;     C4-    O2-    C2-    H4
     4      7      2     16      9 ;     0.00   1.41001   3 ;     C4-    O2-    C2-    H5
     4      7      2     17      9 ;     0.00   1.41001   3 ;     C4-    O2-    C2-    H6
     4      8      3     18      9 ;     0.00   1.41001   3 ;     C4-    O3-    C3-    H7
     4      8      3     19      9 ;     0.00   1.41001   3 ;     C4-    O3-    C3-    H8
     4      8      3     20      9 ;     0.00   1.41001   3 ;     C4-    O3-    C3-    H9
     6      4      5      9      9 ;     0.00   0.65084   3 ;     O1-    C4-    C5-    F1
     6      4      5     10      9 ;     0.00   0.65084   3 ;     O1-    C4-    C5-    F2
     6      4      5     11      9 ;     0.00   0.65084   3 ;     O1-    C4-    C5-    F3
     7      4      5      9      9 ;     0.00   0.65084   3 ;     O2-    C4-    C5-    F1
     7      4      5     10      9 ;     0.00   0.65084   3 ;     O2-    C4-    C5-    F2
     7      4      5     11      9 ;     0.00   0.65084   3 ;     O2-    C4-    C5-    F3
     8      4      5      9      9 ;     0.00   0.65084   3 ;     O3-    C4-    C5-    F1
     8      4      5     10      9 ;     0.00   0.65084   3 ;     O3-    C4-    C5-    F2
     8      4      5     11      9 ;     0.00   0.65084   3 ;     O3-    C4-    C5-    F3
    12      1      6      4      9 ;     0.00   1.41001   3 ;     H1-    C1-    O1-    C4
    13      1      6      4      9 ;     0.00   1.41001   3 ;     H2-    C1-    O1-    C4
    14      1      6      4      9 ;     0.00   1.41001   3 ;     H3-    C1-    O1-    C4
