mobley_7009711_GMX.gro created by acpype (v: 2023.10.27) on Wed May 20 23:56:45 2026
 9757
    1MOL     C1    1   2.333   2.320   2.226
    1MOL     C2    2   2.224   2.388   2.431
    1MOL     C3    3   2.438   2.275   2.439
    1MOL     C4    4   2.226   2.380   2.291
    1MOL     C5    5   2.439   2.267   2.300
    1MOL     C6    6   2.330   2.336   2.505
    1MOL     C7    7   2.112   2.436   2.212
    1MOL     C8    8   2.554   2.203   2.230
    1MOL     O1    9   2.329   2.344   2.641
    1MOL     H1   10   2.334   2.313   2.118
    1MOL     H2   11   2.141   2.435   2.482
    1MOL     H3   12   2.520   2.235   2.497
    1MOL     H4   13   2.023   2.372   2.223
    1MOL     H5   14   2.086   2.537   2.246
    1MOL     H6   15   2.138   2.444   2.106
    1MOL     H7   16   2.631   2.173   2.302
    1MOL     H8   17   2.522   2.113   2.175
    1MOL     H9   18   2.599   2.271   2.157
    1MOL    H10   19   2.262   2.409   2.668
    2SOL     OW   20   0.230   0.628   0.113
    2SOL    HW1   21   0.137   0.626   0.150
    2SOL    HW2   22   0.231   0.589   0.021
    3SOL     OW   23   0.225   0.275   0.996
    3SOL    HW1   24   0.260   0.258   1.088
    3SOL    HW2   25   0.137   0.230   0.984
    4SOL     OW   26   0.019   0.368   0.647
    4SOL    HW1   27  -0.063   0.411   0.686
    4SOL    HW2   28  -0.009   0.295   0.584
    5SOL     OW   29   0.569   1.275   1.165
    5SOL    HW1   30   0.476   1.268   1.128
    5SOL    HW2   31   0.580   1.364   1.209
    6SOL     OW   32   1.555   1.511   0.703
    6SOL    HW1   33   1.498   1.495   0.784
    6SOL    HW2   34   1.496   1.521   0.623
    7SOL     OW   35   1.135   0.703   0.717
    7SOL    HW1   36   1.192   0.781   0.692
    7SOL    HW2   37   1.075   0.729   0.793
    8SOL     OW   38   1.755   0.607   0.231
    8SOL    HW1   39   1.743   0.594   0.132
    8SOL    HW2   40   1.725   0.526   0.280
    9SOL     OW   41   0.768   1.144   1.023
    9SOL    HW1   42   0.690   1.161   1.083
    9SOL    HW2   43   0.802   1.231   0.987
   10SOL     OW   44   0.850   0.798   1.823
   10SOL    HW1   45   0.846   0.874   1.888
   10SOL    HW2   46   0.872   0.834   1.732
   11SOL     OW   47   0.685   1.012   0.665
   11SOL    HW1   48   0.754   0.996   0.735
   11SOL    HW2   49   0.612   1.069   0.703
   12SOL     OW   50   0.686   1.161   1.803
   12SOL    HW1   51   0.746   1.240   1.817
   12SOL    HW2   52   0.600   1.192   1.762
   13SOL     OW   53   0.335   1.435   1.061
   13SOL    HW1   54   0.257   1.404   1.008
   13SOL    HW2   55   0.393   1.493   1.004
   14SOL     OW   56   1.460   1.505   1.339
   14SOL    HW1   57   1.484   1.599   1.365
   14SOL    HW2   58   1.444   1.451   1.421
   15SOL     OW   59   0.438   0.392   1.499
   15SOL    HW1   60   0.520   0.336   1.508
   15SOL    HW2   61   0.357   0.334   1.503
   16SOL     OW   62   1.603   0.447   0.737
   16SOL    HW1   63   1.529   0.493   0.687
   16SOL    HW2   64   1.654   0.515   0.790
   17SOL     OW   65   0.231   1.713   0.483
   17SOL    HW1   66   0.265   1.790   0.537
   17SOL    HW2   67   0.275   1.713   0.393
   18SOL     OW   68   1.127   1.341   1.690
   18SOL    HW1   69   1.174   1.341   1.778
   18SOL    HW2   70   1.079   1.254   1.679
   19SOL     OW   71   0.230   1.434   0.538
   19SOL    HW1   72   0.204   1.530   0.538
   19SOL    HW2   73   0.159   1.380   0.583
   20SOL     OW   74   0.240   1.091   0.886
   20SOL    HW1   75   0.254   1.007   0.938
   20SOL    HW2   76   0.185   1.155   0.941
   21SOL     OW   77   0.620   1.786   1.439
   21SOL    HW1   78   0.528   1.769   1.474
   21SOL    HW2   79   0.648   1.878   1.465
   22SOL     OW   80   0.606   0.964   0.123
   22SOL    HW1   81   0.613   1.048   0.069
   22SOL    HW2   82   0.652   0.977   0.211
   23SOL     OW   83   1.594   0.114   1.480
   23SOL    HW1   84   1.576   0.181   1.408
   23SOL    HW2   85   1.591   0.160   1.569
   24SOL     OW   86   0.122   0.643   0.563
   24SOL    HW1   87   0.077   0.555   0.580
   24SOL    HW2   88   0.121   0.697   0.647
   25SOL     OW   89   1.842   1.767   0.359
   25SOL    HW1   90   1.896   1.738   0.439
   25SOL    HW2   91   1.872   1.857   0.330
   26SOL     OW   92   0.027   1.596   0.117
   26SOL    HW1   93   0.008   1.500   0.138
   26SOL    HW2   94  -0.006   1.654   0.192
   27SOL     OW   95   1.689   0.922   0.612
   27SOL    HW1   96   1.784   0.893   0.620
   27SOL    HW2   97   1.681   0.987   0.537
   28SOL     OW   98   1.641   1.108   0.432
   28SOL    HW1   99   1.727   1.110   0.380
   28SOL    HW2  100   1.655   1.155   0.520
   29SOL     OW  101   0.113   0.737   1.597
   29SOL    HW1  102   0.201   0.724   1.642
   29SOL    HW2  103   0.100   0.834   1.575
   30SOL     OW  104   0.613   1.365   0.726
   30SOL    HW1  105   0.564   1.278   0.735
   30SOL    HW2  106   0.590   1.408   0.639
   31SOL     OW  107   1.293   1.228   1.423
   31SOL    HW1  108   1.330   1.155   1.365
   31SOL    HW2  109   1.345   1.233   1.508
   32SOL     OW  110   0.809   0.004   0.502
   32SOL    HW1  111   0.849   0.095   0.493
   32SOL    HW2  112   0.709   0.012   0.508
   33SOL     OW  113   0.197   0.976   1.264
   33SOL    HW1  114   0.286   0.931   1.250
   33SOL    HW2  115   0.124   0.911   1.245
   34SOL     OW  116   1.525   0.999   0.190
   34SOL    HW1  117   1.462   0.923   0.203
   34SOL    HW2  118   1.573   1.017   0.276
   35SOL     OW  119   1.187   1.792   1.616
   35SOL    HW1  120   1.211   1.852   1.540
   35SOL    HW2  121   1.194   1.697   1.586
   36SOL     OW  122   0.317   0.251   1.801
   36SOL    HW1  123   0.388   0.322   1.807
   36SOL    HW2  124   0.229   0.290   1.829
   37SOL     OW  125   1.466   1.417   0.953
   37SOL    HW1  126   1.407   1.423   1.033
   37SOL    HW2  127   1.451   1.329   0.907
   38SOL     OW  128   1.667   1.714   0.572
   38SOL    HW1  129   1.626   1.691   0.484
   38SOL    HW2  130   1.649   1.640   0.637
   39SOL     OW  131   0.598   0.729   0.270
   39SOL    HW1  132   0.622   0.798   0.202
   39SOL    HW2  133   0.520   0.762   0.324
   40SOL     OW  134   1.281   0.345   0.944
   40SOL    HW1  135   1.195   0.295   0.931
   40SOL    HW2  136   1.343   0.291   1.000
   41SOL     OW  137   1.576   1.662   0.307
   41SOL    HW1  138   1.665   1.708   0.310
   41SOL    HW2  139   1.555   1.638   0.212
   42SOL     OW  140   0.807   0.605   1.465
   42SOL    HW1  141   0.760   0.602   1.554
   42SOL    HW2  142   0.756   0.550   1.399
   43SOL     OW  143   1.394   0.469   1.674
   43SOL    HW1  144   1.374   0.512   1.762
   43SOL    HW2  145   1.472   0.407   1.683
   44SOL     OW  146   0.973   0.890   1.572
   44SOL    HW1  147   1.019   0.806   1.543
   44SOL    HW2  148   0.917   0.924   1.497
   45SOL     OW  149   0.991   0.410   1.242
   45SOL    HW1  150   0.914   0.444   1.296
   45SOL    HW2  151   0.957   0.359   1.163
   46SOL     OW  152   1.041   0.701   0.429
   46SOL    HW1  153   1.067   0.697   0.525
   46SOL    HW2  154   0.956   0.650   0.415
   47SOL     OW  155   0.076   0.811   0.789
   47SOL    HW1  156   0.175   0.799   0.798
   47SOL    HW2  157   0.052   0.906   0.810
   48SOL     OW  158   0.130   1.821   1.571
   48SOL    HW1  159   0.120   1.806   1.670
   48SOL    HW2  160   0.044   1.857   1.535
   49SOL     OW  161   0.865   0.348   0.195
   49SOL    HW1  162   0.924   0.411   0.146
   49SOL    HW2  163   0.884   0.254   0.166
   50SOL     OW  164   1.719   0.585   1.831
   50SOL    HW1  165   1.693   0.674   1.795
   50SOL    HW2  166   1.717   0.517   1.758
   51SOL     OW  167   1.362   1.144   0.545
   51SOL    HW1  168   1.445   1.115   0.497
   51SOL    HW2  169   1.313   1.211   0.489
   52SOL     OW  170   0.550   0.196   0.885
   52SOL    HW1  171   0.545   0.191   0.985
   52SOL    HW2  172   0.552   0.292   0.856
   53SOL     OW  173   1.008   1.456   0.477
   53SOL    HW1  174   0.962   1.528   0.425
   53SOL    HW2  175   1.004   1.476   0.575
   54SOL     OW  176   0.351   1.801   0.853
   54SOL    HW1  177   0.401   1.715   0.859
   54SOL    HW2  178   0.416   1.878   0.850
   55SOL     OW  179   1.795   1.066   0.873
   55SOL    HW1  180   1.733   1.051   0.797
   55SOL    HW2  181   1.743   1.077   0.958
   56SOL     OW  182   1.227   1.550   1.506
   56SOL    HW1  183   1.233   1.473   1.570
   56SOL    HW2  184   1.175   1.524   1.426
   57SOL     OW  185   0.321   0.943   0.242
   57SOL    HW1  186   0.403   0.982   0.200
   57SOL    HW2  187   0.294   0.861   0.193
   58SOL     OW  188   1.458   0.735   0.728
   58SOL    HW1  189   1.453   0.670   0.803
   58SOL    HW2  190   1.538   0.794   0.741
   59SOL     OW  191   0.461   1.266   1.727
   59SOL    HW1  192   0.411   1.267   1.641
   59SOL    HW2  193   0.398   1.248   1.803
   60SOL     OW  194   1.111   1.776   0.237
   60SOL    HW1  195   1.051   1.714   0.287
   60SOL    HW2  196   1.142   1.732   0.152
   61SOL     OW  197   0.202   0.285   1.498
   61SOL    HW1  198   0.122   0.345   1.485
   61SOL    HW2  199   0.192   0.236   1.584
   62SOL     OW  200   1.632   1.377   0.081
   62SOL    HW1  201   1.600   1.471   0.071
   62SOL    HW2  202   1.556   1.314   0.069
   63SOL     OW  203   0.464   1.743   0.323
   63SOL    HW1  204   0.497   1.782   0.409
   63SOL    HW2  205   0.540   1.736   0.258
   64SOL     OW  206   1.400   0.107   0.426
   64SOL    HW1  207   1.376   0.070   0.336
   64SOL    HW2  208   1.499   0.123   0.430
   65SOL     OW  209   0.249   1.785   1.241
   65SOL    HW1  210   0.306   1.720   1.291
   65SOL    HW2  211   0.233   1.752   1.148
   66SOL     OW  212   0.940   1.698   0.904
   66SOL    HW1  213   1.020   1.641   0.925
   66SOL    HW2  214   0.891   1.658   0.827
   67SOL     OW  215   0.382   0.700   0.480
   67SOL    HW1  216   0.427   0.610   0.477
   67SOL    HW2  217   0.288   0.689   0.513
   68SOL     OW  218   1.547   0.222   1.729
   68SOL    HW1  219   1.542   0.259   1.821
   68SOL    HW2  220   1.475   0.153   1.717
   69SOL     OW  221   0.614   0.122   0.117
   69SOL    HW1  222   0.712   0.100   0.124
   69SOL    HW2  223   0.583   0.105   0.024
   70SOL     OW  224   0.781   0.264   1.749
   70SOL    HW1  225   0.848   0.203   1.792
   70SOL    HW2  226   0.708   0.283   1.814
   71SOL     OW  227   0.888   1.514   1.195
   71SOL    HW1  228   0.865   1.489   1.101
   71SOL    HW2  229   0.949   1.445   1.234
   72SOL     OW  230   1.351   0.590   1.433
   72SOL    HW1  231   1.379   0.547   1.518
   72SOL    HW2  232   1.376   0.686   1.434
   73SOL     OW  233   0.803   1.402   0.924
   73SOL    HW1  234   0.893   1.416   0.882
   73SOL    HW2  235   0.732   1.404   0.853
   74SOL     OW  236   0.922   0.503   0.899
   74SOL    HW1  237   0.897   0.494   0.803
   74SOL    HW2  238   0.970   0.421   0.930
   75SOL     OW  239   0.539   0.064   0.512
   75SOL    HW1  240   0.458   0.065   0.570
   75SOL    HW2  241   0.542   0.147   0.457
   76SOL     OW  242   1.434   1.188   0.041
   76SOL    HW1  243   1.466   1.112   0.098
   76SOL    HW2  244   1.342   1.215   0.071
   77SOL     OW  245   0.297   0.035   0.171
   77SOL    HW1  246   0.346   0.119   0.150
   77SOL    HW2  247   0.359  -0.030   0.216
   78SOL     OW  248   0.935   0.236   0.480
   78SOL    HW1  249   0.887   0.277   0.402
   78SOL    HW2  250   1.034   0.234   0.461
   79SOL     OW  251   1.076   0.683   1.464
   79SOL    HW1  252   0.996   0.622   1.467
   79SOL    HW2  253   1.157   0.630   1.440
   80SOL     OW  254   1.227   1.570   0.793
   80SOL    HW1  255   1.248   1.644   0.728
   80SOL    HW2  256   1.295   1.570   0.866
   81SOL     OW  257   0.459   1.152   0.741
   81SOL    HW1  258   0.388   1.125   0.806
   81SOL    HW2  259   0.433   1.124   0.648
   82SOL     OW  260   1.271   1.797   0.591
   82SOL    HW1  261   1.315   1.861   0.527
   82SOL    HW2  262   1.221   1.849   0.661
   83SOL     OW  263   1.032   0.549   0.016
   83SOL    HW1  264   0.991   0.631  -0.023
   83SOL    HW2  265   1.096   0.575   0.089
   84SOL     OW  266   0.078   0.556   1.386
   84SOL    HW1  267   0.170   0.555   1.345
   84SOL    HW2  268   0.072   0.630   1.453
   85SOL     OW  269   0.561   0.222   1.147
   85SOL    HW1  270   0.599   0.138   1.184
   85SOL    HW2  271   0.473   0.241   1.191
   86SOL     OW  272   0.866   0.454   0.642
   86SOL    HW1  273   0.834   0.526   0.580
   86SOL    HW2  274   0.890   0.373   0.589
   87SOL     OW  275   1.017   0.039   0.753
   87SOL    HW1  276   0.945   0.044   0.684
   87SOL    HW2  277   0.993  -0.030   0.822
   88SOL     OW  278   1.429   1.173   0.867
   88SOL    HW1  279   1.374   1.089   0.860
   88SOL    HW2  280   1.455   1.202   0.775
   89SOL     OW  281   1.466   0.590   0.992
   89SOL    HW1  282   1.436   0.495   0.999
   89SOL    HW2  283   1.539   0.606   1.058
   90SOL     OW  284   1.857   0.833   0.377
   90SOL    HW1  285   1.899   0.769   0.441
   90SOL    HW2  286   1.819   0.782   0.299
   91SOL     OW  287   0.488   1.385   0.174
   91SOL    HW1  288   0.401   1.370   0.221
   91SOL    HW2  289   0.471   1.411   0.079
   92SOL     OW  290   1.664   1.280   0.657
   92SOL    HW1  291   1.763   1.288   0.671
   92SOL    HW2  292   1.619   1.364   0.688
   93SOL     OW  293   1.390   0.575   0.078
   93SOL    HW1  294   1.336   0.554   0.159
   93SOL    HW2  295   1.481   0.534   0.087
   94SOL     OW  296   0.527   0.256   0.328
   94SOL    HW1  297   0.554   0.197   0.253
   94SOL    HW2  298   0.527   0.351   0.297
   95SOL     OW  299   1.754   1.223   1.588
   95SOL    HW1  300   1.845   1.184   1.575
   95SOL    HW2  301   1.762   1.319   1.612
   96SOL     OW  302   1.064   1.347   1.340
   96SOL    HW1  303   0.984   1.324   1.395
   96SOL    HW2  304   1.147   1.321   1.389
   97SOL     OW  305   1.592   1.629   1.625
   97SOL    HW1  306   1.619   1.663   1.535
   97SOL    HW2  307   1.671   1.591   1.671
   98SOL     OW  308   1.111   1.195   1.100
   98SOL    HW1  309   1.071   1.239   1.181
   98SOL    HW2  310   1.070   1.232   1.017
   99SOL     OW  311   1.638   1.099   1.079
   99SOL    HW1  312   1.643   1.180   1.138
   99SOL    HW2  313   1.552   1.101   1.028
  100SOL     OW  314   0.915   0.089   1.402
  100SOL    HW1  315   0.940   0.069   1.307
  100SOL    HW2  316   0.987   0.145   1.444
  101SOL     OW  317   0.980   1.116   1.719
  101SOL    HW1  318   0.881   1.122   1.729
  101SOL    HW2  319   1.003   1.036   1.663
  102SOL     OW  320   0.705   1.050   0.368
  102SOL    HW1  321   0.691   1.057   0.467
  102SOL    HW2  322   0.789   0.999   0.350
  103SOL     OW  323   0.410   0.813   1.251
  103SOL    HW1  324   0.496   0.825   1.301
  103SOL    HW2  325   0.368   0.726   1.278
  104SOL     OW  326   1.274   0.386   1.262
  104SOL    HW1  327   1.295   0.460   1.326
  104SOL    HW2  328   1.185   0.403   1.219
  105SOL     OW  329   0.064   1.564   1.331
  105SOL    HW1  330   0.018   1.646   1.297
  105SOL    HW2  331   0.162   1.583   1.340
  106SOL     OW  332   0.367   1.100   0.501
  106SOL    HW1  333   0.360   1.183   0.445
  106SOL    HW2  334   0.371   1.020   0.441
  107SOL     OW  335   0.566   0.537   0.865
  107SOL    HW1  336   0.578   0.603   0.791
  107SOL    HW2  337   0.612   0.571   0.948
  108SOL     OW  338   1.252   1.348   0.388
  108SOL    HW1  339   1.302   1.425   0.428
  108SOL    HW2  340   1.157   1.350   0.420
  109SOL     OW  341   1.272   1.445   1.142
  109SOL    HW1  342   1.319   1.458   1.229
  109SOL    HW2  343   1.206   1.371   1.151
  110SOL     OW  344   1.582   0.639   0.472
  110SOL    HW1  345   1.551   0.700   0.545
  110SOL    HW2  346   1.632   0.691   0.403
  111SOL     OW  347   0.354   1.510   1.329
  111SOL    HW1  348   0.333   1.466   1.242
  111SOL    HW2  349   0.451   1.536   1.332
  112SOL     OW  350   0.402   0.751   1.598
  112SOL    HW1  351   0.470   0.806   1.551
  112SOL    HW2  352   0.442   0.663   1.625
  113SOL     OW  353   1.587   0.779   1.670
  113SOL    HW1  354   1.495   0.817   1.665
  113SOL    HW2  355   1.647   0.826   1.605
  114SOL     OW  356   1.013   0.105   1.770
  114SOL    HW1  357   1.019   0.190   1.718
  114SOL    HW2  358   1.045   0.029   1.713
  115SOL     OW  359   0.504   0.050   1.740
  115SOL    HW1  360   0.462  -0.007   1.670
  115SOL    HW2  361   0.438   0.119   1.772
  116SOL     OW  362   0.573   0.870   1.029
  116SOL    HW1  363   0.617   0.959   1.020
  116SOL    HW2  364   0.510   0.870   1.106
  117SOL     OW  365   1.360   0.862   1.045
  117SOL    HW1  366   1.285   0.862   0.979
  117SOL    HW2  367   1.397   0.770   1.054
  118SOL     OW  368   1.209   0.525   0.275
  118SOL    HW1  369   1.222   0.441   0.329
  118SOL    HW2  370   1.180   0.599   0.335
  119SOL     OW  371   0.307   0.213   1.231
  119SOL    HW1  372   0.284   0.250   1.321
  119SOL    HW2  373   0.277   0.118   1.225
  120SOL     OW  374   0.037   1.310   1.282
  120SOL    HW1  375   0.090   1.261   1.350
  120SOL    HW2  376   0.059   1.408   1.287
  121SOL     OW  377   0.732   0.634   1.064
  121SOL    HW1  378   0.791   0.608   0.988
  121SOL    HW2  379   0.704   0.730   1.053
  122SOL     OW  380   1.728   0.935   1.854
  122SOL    HW1  381   1.682   0.928   1.765
  122SOL    HW2  382   1.666   0.979   1.920
  123SOL     OW  383   0.307   0.063   0.618
  123SOL    HW1  384   0.296   0.157   0.651
  123SOL    HW2  385   0.302   0.000   0.695
  124SOL     OW  386   1.622   0.367   0.374
  124SOL    HW1  387   1.624   0.291   0.438
  124SOL    HW2  388   1.574   0.444   0.414
  125SOL     OW  389   1.023   0.766   0.966
  125SOL    HW1  390   1.038   0.787   1.062
  125SOL    HW2  391   0.993   0.671   0.957
  126SOL     OW  392   0.980   1.573   1.700
  126SOL    HW1  393   0.960   1.617   1.612
  126SOL    HW2  394   1.019   1.482   1.684
  127SOL     OW  395   1.859   1.518   1.605
  127SOL    HW1  396   1.873   1.545   1.510
  127SOL    HW2  397   1.942   1.540   1.658
  128SOL     OW  398   0.350   0.898   1.804
  128SOL    HW1  399   0.426   0.942   1.852
  128SOL    HW2  400   0.385   0.851   1.722
  129SOL     OW  401   1.540   0.274   0.125
  129SOL    HW1  402   1.479   0.199   0.148
  129SOL    HW2  403   1.562   0.326   0.208
  130SOL     OW  404   1.303   0.838   0.042
  130SOL    HW1  405   1.337   0.745   0.057
  130SOL    HW2  406   1.321   0.865  -0.053
  131SOL     OW  407   1.068   1.333   0.849
  131SOL    HW1  408   1.075   1.249   0.794
  131SOL    HW2  409   1.130   1.402   0.813
  132SOL     OW  410   0.319   0.810   0.949
  132SOL    HW1  411   0.412   0.846   0.954
  132SOL    HW2  412   0.313   0.725   1.001
  133SOL     OW  413   0.339   0.509   1.006
  133SOL    HW1  414   0.287   0.426   0.989
  133SOL    HW2  415   0.416   0.514   0.942
  134SOL     OW  416   1.138   0.380   1.678
  134SOL    HW1  417   1.093   0.443   1.742
  134SOL    HW2  418   1.231   0.411   1.661
  135SOL     OW  419   1.160   0.207   1.477
  135SOL    HW1  420   1.160   0.271   1.554
  135SOL    HW2  421   1.188   0.255   1.394
  136SOL     OW  422   0.008   1.326   0.200
  136SOL    HW1  423  -0.085   1.347   0.169
  136SOL    HW2  424   0.018   1.227   0.213
  137SOL     OW  425   0.088   1.801   0.927
  137SOL    HW1  426   0.046   1.715   0.900
  137SOL    HW2  427   0.182   1.804   0.893
  138SOL     OW  428   0.504   1.568   0.910
  138SOL    HW1  429   0.570   1.642   0.919
  138SOL    HW2  430   0.548   1.489   0.868
  139SOL     OW  431   1.002   0.796   1.238
  139SOL    HW1  432   1.043   0.764   1.324
  139SOL    HW2  433   0.906   0.769   1.235
  140SOL     OW  434   0.040   0.544   1.114
  140SOL    HW1  435   0.125   0.511   1.073
  140SOL    HW2  436   0.053   0.559   1.212
  141SOL     OW  437   0.189   0.520   1.722
  141SOL    HW1  438   0.248   0.480   1.652
  141SOL    HW2  439   0.131   0.591   1.681
  142SOL     OW  440   1.369   0.950   1.660
  142SOL    HW1  441   1.408   1.039   1.680
  142SOL    HW2  442   1.379   0.930   1.563
  143SOL     OW  443   0.815   0.572   0.325
  143SOL    HW1  444   0.822   0.483   0.279
  143SOL    HW2  445   0.721   0.606   0.317
  144SOL     OW  446   1.657   0.604   1.206
  144SOL    HW1  447   1.619   0.535   1.268
  144SOL    HW2  448   1.739   0.568   1.162
  145SOL     OW  449   0.252   1.564   1.744
  145SOL    HW1  450   0.222   1.621   1.820
  145SOL    HW2  451   0.245   1.467   1.770
  146SOL     OW  452   0.671   0.464   1.269
  146SOL    HW1  453   0.637   0.375   1.239
  146SOL    HW2  454   0.697   0.518   1.189
  147SOL     OW  455   0.930   1.678   1.465
  147SOL    HW1  456   0.906   1.660   1.370
  147SOL    HW2  457   0.960   1.772   1.475
  148SOL     OW  458   0.473   0.500   0.191
  148SOL    HW1  459   0.534   0.580   0.195
  148SOL    HW2  460   0.378   0.531   0.198
  149SOL     OW  461   0.159   1.137   1.466
  149SOL    HW1  462   0.181   1.076   1.542
  149SOL    HW2  463   0.169   1.088   1.380
  150SOL     OW  464   1.347   1.059   1.234
  150SOL    HW1  465   1.371   0.996   1.160
  150SOL    HW2  466   1.257   1.099   1.216
  151SOL     OW  467   1.302   0.855   0.309
  151SOL    HW1  468   1.216   0.824   0.351
  151SOL    HW2  469   1.298   0.841   0.210
  152SOL     OW  470   1.759   1.747   1.154
  152SOL    HW1  471   1.820   1.777   1.081
  152SOL    HW2  472   1.721   1.658   1.132
  153SOL     OW  473   1.252   1.731   1.128
  153SOL    HW1  474   1.336   1.736   1.074
  153SOL    HW2  475   1.229   1.635   1.146
  154SOL     OW  476   0.083   1.258   1.022
  154SOL    HW1  477   0.078   1.257   1.122
  154SOL    HW2  478   0.000   1.217   0.984
  155SOL     OW  479   0.688   1.662   1.716
  155SOL    HW1  480   0.632   1.743   1.725
  155SOL    HW2  481   0.740   1.666   1.630
  156SOL     OW  482   0.903   0.086   0.133
  156SOL    HW1  483   0.954   0.087   0.047
  156SOL    HW2  484   0.959   0.044   0.204
  157SOL     OW  485   1.726   0.135   0.523
  157SOL    HW1  486   1.799   0.118   0.456
  157SOL    HW2  487   1.695   0.048   0.561
  158SOL     OW  488   1.388   1.573   0.477
  158SOL    HW1  489   1.455   1.585   0.403
  158SOL    HW2  490   1.348   1.662   0.500
  159SOL     OW  491   0.130   1.794   1.851
  159SOL    HW1  492   0.089   1.720   1.904
  159SOL    HW2  493   0.194   1.845   1.909
  160SOL     OW  494   1.280   0.927   0.672
  160SOL    HW1  495   1.340   0.846   0.674
  160SOL    HW2  496   1.320   0.996   0.612
  161SOL     OW  497   0.830   1.273   1.422
  161SOL    HW1  498   0.825   1.306   1.517
  161SOL    HW2  499   0.744   1.292   1.376
  162SOL     OW  500   0.672   1.616   0.154
  162SOL    HW1  501   0.681   1.626   0.055
  162SOL    HW2  502   0.632   1.527   0.175
  163SOL     OW  503   1.650   1.720   1.394
  163SOL    HW1  504   1.703   1.730   1.310
  163SOL    HW2  505   1.623   1.810   1.428
  164SOL     OW  506   1.841   0.175   0.963
  164SOL    HW1  507   1.880   0.090   0.927
  164SOL    HW2  508   1.743   0.177   0.944
  165SOL     OW  509   0.263   0.326   0.720
  165SOL    HW1  510   0.184   0.377   0.686
  165SOL    HW2  511   0.254   0.311   0.818
  166SOL     OW  512   1.194   1.612   0.031
  166SOL    HW1  513   1.200   1.519   0.068
  166SOL    HW2  514   1.135   1.612  -0.049
  167SOL     OW  515   0.822   1.002   1.372
  167SOL    HW1  516   0.862   1.001   1.280
  167SOL    HW2  517   0.832   1.094   1.412
  168SOL     OW  518   0.916   0.910   0.291
  168SOL    HW1  519   0.979   0.948   0.223
  168SOL    HW2  520   0.956   0.827   0.330
  169SOL     OW  521   1.504   1.607   0.044
  169SOL    HW1  522   1.412   1.644   0.051
  169SOL    HW2  523   1.542   1.627  -0.046
  170SOL     OW  524   0.372   1.288   1.490
  170SOL    HW1  525   0.359   1.381   1.456
  170SOL    HW2  526   0.288   1.236   1.477
  171SOL     OW  527   1.614   1.292   1.289
  171SOL    HW1  528   1.674   1.295   1.369
  171SOL    HW2  529   1.539   1.356   1.302
  172SOL     OW  530   1.039   1.098   0.696
  172SOL    HW1  531   0.969   1.051   0.750
  172SOL    HW2  532   1.098   1.030   0.653
  173SOL     OW  533   1.014   0.236   0.971
  173SOL    HW1  534   1.006   0.200   0.878
  173SOL    HW2  535   1.012   0.160   1.036
  174SOL     OW  536   0.590   1.487   0.491
  174SOL    HW1  537   0.632   1.429   0.421
  174SOL    HW2  538   0.546   1.566   0.447
  175SOL     OW  539   1.709   0.385   1.381
  175SOL    HW1  540   1.782   0.454   1.385
  175SOL    HW2  541   1.737   0.310   1.322
  176SOL     OW  542   0.255   1.348   0.290
  176SOL    HW1  543   0.159   1.349   0.263
  176SOL    HW2  544   0.267   1.401   0.374
  177SOL     OW  545   0.105   1.013   1.726
  177SOL    HW1  546   0.028   0.980   1.780
  177SOL    HW2  547   0.190   0.983   1.768
  178SOL     OW  548   0.672   0.203   1.489
  178SOL    HW1  549   0.762   0.187   1.449
  178SOL    HW2  550   0.680   0.208   1.588
  179SOL     OW  551   0.075   0.345   0.033
  179SOL    HW1  552  -0.017   0.317   0.004
  179SOL    HW2  553   0.106   0.422  -0.023
  180SOL     OW  554   1.440   0.856   1.398
  180SOL    HW1  555   1.383   0.908   1.335
  180SOL    HW2  556   1.536   0.868   1.374
  181SOL     OW  557   0.072   0.166   0.318
  181SOL    HW1  558   0.055   0.249   0.264
  181SOL    HW2  559   0.162   0.129   0.296
  182SOL     OW  560   1.183   1.335   0.119
  182SOL    HW1  561   1.084   1.324   0.121
  182SOL    HW2  562   1.217   1.350   0.212
  183SOL     OW  563   0.613   0.842   1.431
  183SOL    HW1  564   0.669   0.923   1.414
  183SOL    HW2  565   0.672   0.762   1.434
  184SOL     OW  566   1.493   1.767   0.959
  184SOL    HW1  567   1.526   1.831   0.890
  184SOL    HW2  568   1.559   1.761   1.034
  185SOL     OW  569   0.716   0.565   1.708
  185SOL    HW1  570   0.735   0.630   1.782
  185SOL    HW2  571   0.776   0.485   1.717
  186SOL     OW  572   1.450   1.220   1.633
  186SOL    HW1  573   1.441   1.210   1.732
  186SOL    HW2  574   1.546   1.213   1.607
  187SOL     OW  575   0.390   1.741   1.560
  187SOL    HW1  576   0.299   1.782   1.558
  187SOL    HW2  577   0.383   1.647   1.592
  188SOL     OW  578   1.674   0.883   1.254
  188SOL    HW1  579   1.647   0.794   1.217
  188SOL    HW2  580   1.675   0.951   1.181
  189SOL     OW  581   1.225   0.325   0.449
  189SOL    HW1  582   1.290   0.251   0.438
  189SOL    HW2  583   1.245   0.375   0.533
  190SOL     OW  584   0.594   0.745   0.652
  190SOL    HW1  585   0.644   0.830   0.633
  190SOL    HW2  586   0.506   0.747   0.604
  191SOL     OW  587   1.777   0.342   1.642
  191SOL    HW1  588   1.760   0.373   1.548
  191SOL    HW2  589   1.693   0.305   1.680
  192SOL     OW  590   1.730   0.934   1.517
  192SOL    HW1  591   1.768   1.025   1.532
  192SOL    HW2  592   1.722   0.917   1.418
  193SOL     OW  593   0.859   1.374   0.016
  193SOL    HW1  594   0.813   1.389   0.104
  193SOL    HW2  595   0.903   1.459  -0.014
  194SOL     OW  596   0.661   1.790   0.953
  194SOL    HW1  597   0.615   1.878   0.940
  194SOL    HW2  598   0.760   1.802   0.946
  195SOL     OW  599   0.859   0.956   0.861
  195SOL    HW1  600   0.913   0.887   0.909
  195SOL    HW2  601   0.827   1.025   0.927
  196SOL     OW  602   1.083   0.984   0.087
  196SOL    HW1  603   1.060   1.037   0.005
  196SOL    HW2  604   1.164   0.928   0.068
  197SOL     OW  605   1.861   1.569   0.851
  197SOL    HW1  606   1.790   1.557   0.781
  197SOL    HW2  607   1.862   1.490   0.911
  198SOL     OW  608   0.221   1.314   1.844
  198SOL    HW1  609   0.156   1.241   1.823
  198SOL    HW2  610   0.225   1.328   1.942
  199SOL     OW  611   0.079   1.240   0.653
  199SOL    HW1  612   0.078   1.193   0.741
  199SOL    HW2  613   0.161   1.212   0.602
  200SOL     OW  614   0.672   1.391   1.624
  200SOL    HW1  615   0.594   1.341   1.662
  200SOL    HW2  616   0.669   1.486   1.655
  201SOL     OW  617   1.824   0.192   1.227
  201SOL    HW1  618   1.820   0.102   1.271
  201SOL    HW2  619   1.827   0.181   1.128
  202SOL     OW  620   0.428   0.424   0.520
  202SOL    HW1  621   0.458   0.352   0.458
  202SOL    HW2  622   0.389   0.384   0.603
  203SOL     OW  623   1.705   1.487   1.104
  203SOL    HW1  624   1.612   1.462   1.077
  203SOL    HW2  625   1.731   1.437   1.186
  204SOL     OW  626   0.317   0.547   1.280
  204SOL    HW1  627   0.355   0.488   1.352
  204SOL    HW2  628   0.357   0.521   1.192
  205SOL     OW  629   0.812   1.586   0.687
  205SOL    HW1  630   0.844   1.596   0.593
  205SOL    HW2  631   0.733   1.524   0.689
  206SOL     OW  632   1.424   0.214   1.112
  206SOL    HW1  633   1.476   0.149   1.167
  206SOL    HW2  634   1.375   0.277   1.173
  207SOL     OW  635   1.001   0.034   1.154
  207SOL    HW1  636   0.938  -0.038   1.123
  207SOL    HW2  637   1.094  -0.002   1.154
  208SOL     OW  638   0.770   1.330   0.301
  208SOL    HW1  639   0.724   1.243   0.318
  208SOL    HW2  640   0.861   1.327   0.342
  209SOL     OW  641   0.618   1.567   1.284
  209SOL    HW1  642   0.613   1.649   1.341
  209SOL    HW2  643   0.707   1.564   1.239
  210SOL     OW  644   1.352   0.052   0.168
  210SOL    HW1  645   1.387   0.011   0.084
  210SOL    HW2  646   1.262   0.014   0.188
  211SOL     OW  647   1.300   0.453   0.691
  211SOL    HW1  648   1.241   0.533   0.695
  211SOL    HW2  649   1.315   0.418   0.784
  212SOL     OW  650   1.593   0.221   0.882
  212SOL    HW1  651   1.509   0.220   0.936
  212SOL    HW2  652   1.595   0.304   0.826
  213SOL     OW  653   0.039   1.077   0.300
  213SOL    HW1  654   0.138   1.066   0.291
  213SOL    HW2  655  -0.001   0.991   0.332
  214SOL     OW  656   0.875   1.646   0.337
  214SOL    HW1  657   0.798   1.611   0.283
  214SOL    HW2  658   0.843   1.717   0.399
  215SOL     OW  659   0.230   0.628   1.975
  215SOL    HW1  660   0.137   0.626   2.012
  215SOL    HW2  661   0.231   0.589   1.883
  216SOL     OW  662   0.225   0.275   2.858
  216SOL    HW1  663   0.260   0.258   2.950
  216SOL    HW2  664   0.137   0.230   2.846
  217SOL     OW  665   0.019   0.368   2.509
  217SOL    HW1  666  -0.063   0.411   2.548
  217SOL    HW2  667  -0.009   0.295   2.446
  218SOL     OW  668   0.569   1.275   3.027
  218SOL    HW1  669   0.476   1.268   2.990
  218SOL    HW2  670   0.580   1.364   3.071
  219SOL     OW  671   1.555   1.511   2.565
  219SOL    HW1  672   1.498   1.495   2.646
  219SOL    HW2  673   1.496   1.521   2.485
  220SOL     OW  674   1.135   0.703   2.579
  220SOL    HW1  675   1.192   0.781   2.554
  220SOL    HW2  676   1.075   0.729   2.655
  221SOL     OW  677   1.755   0.607   2.093
  221SOL    HW1  678   1.743   0.594   1.994
  221SOL    HW2  679   1.725   0.526   2.142
  222SOL     OW  680   0.768   1.144   2.885
  222SOL    HW1  681   0.690   1.161   2.945
  222SOL    HW2  682   0.802   1.231   2.849
  223SOL     OW  683   0.850   0.798   3.685
  223SOL    HW1  684   0.846   0.874   3.750
  223SOL    HW2  685   0.872   0.834   3.594
  224SOL     OW  686   0.685   1.012   2.527
  224SOL    HW1  687   0.754   0.996   2.597
  224SOL    HW2  688   0.612   1.069   2.565
  225SOL     OW  689   0.686   1.161   3.665
  225SOL    HW1  690   0.746   1.240   3.679
  225SOL    HW2  691   0.600   1.192   3.624
  226SOL     OW  692   0.335   1.435   2.923
  226SOL    HW1  693   0.257   1.404   2.870
  226SOL    HW2  694   0.393   1.493   2.866
  227SOL     OW  695   1.460   1.505   3.201
  227SOL    HW1  696   1.484   1.599   3.227
  227SOL    HW2  697   1.444   1.451   3.283
  228SOL     OW  698   0.438   0.392   3.361
  228SOL    HW1  699   0.520   0.336   3.370
  228SOL    HW2  700   0.357   0.334   3.365
  229SOL     OW  701   1.603   0.447   2.599
  229SOL    HW1  702   1.529   0.493   2.549
  229SOL    HW2  703   1.654   0.515   2.652
  230SOL     OW  704   0.231   1.713   2.345
  230SOL    HW1  705   0.265   1.790   2.399
  230SOL    HW2  706   0.275   1.713   2.255
  231SOL     OW  707   1.127   1.341   3.552
  231SOL    HW1  708   1.174   1.341   3.640
  231SOL    HW2  709   1.079   1.254   3.541
  232SOL     OW  710   0.230   1.434   2.400
  232SOL    HW1  711   0.204   1.530   2.400
  232SOL    HW2  712   0.159   1.380   2.445
  233SOL     OW  713   0.240   1.091   2.748
  233SOL    HW1  714   0.254   1.007   2.800
  233SOL    HW2  715   0.185   1.155   2.803
  234SOL     OW  716   0.620   1.786   3.301
  234SOL    HW1  717   0.528   1.769   3.336
  234SOL    HW2  718   0.648   1.878   3.327
  235SOL     OW  719   0.606   0.964   1.985
  235SOL    HW1  720   0.613   1.048   1.931
  235SOL    HW2  721   0.652   0.977   2.073
  236SOL     OW  722   1.594   0.114   3.342
  236SOL    HW1  723   1.576   0.181   3.270
  236SOL    HW2  724   1.591   0.160   3.431
  237SOL     OW  725   0.122   0.643   2.425
  237SOL    HW1  726   0.077   0.555   2.442
  237SOL    HW2  727   0.121   0.697   2.509
  238SOL     OW  728   1.842   1.767   2.221
  238SOL    HW1  729   1.896   1.738   2.301
  238SOL    HW2  730   1.872   1.857   2.192
  239SOL     OW  731   0.027   1.596   1.979
  239SOL    HW1  732   0.008   1.500   2.000
  239SOL    HW2  733  -0.006   1.654   2.054
  240SOL     OW  734   1.689   0.922   2.474
  240SOL    HW1  735   1.784   0.893   2.482
  240SOL    HW2  736   1.681   0.987   2.399
  241SOL     OW  737   1.641   1.108   2.294
  241SOL    HW1  738   1.727   1.110   2.242
  241SOL    HW2  739   1.655   1.155   2.382
  242SOL     OW  740   0.113   0.737   3.459
  242SOL    HW1  741   0.201   0.724   3.504
  242SOL    HW2  742   0.100   0.834   3.437
  243SOL     OW  743   0.613   1.365   2.588
  243SOL    HW1  744   0.564   1.278   2.597
  243SOL    HW2  745   0.590   1.408   2.501
  244SOL     OW  746   1.293   1.228   3.285
  244SOL    HW1  747   1.330   1.155   3.227
  244SOL    HW2  748   1.345   1.233   3.370
  245SOL     OW  749   0.809   0.004   2.364
  245SOL    HW1  750   0.849   0.095   2.355
  245SOL    HW2  751   0.709   0.012   2.370
  246SOL     OW  752   0.197   0.976   3.126
  246SOL    HW1  753   0.286   0.931   3.112
  246SOL    HW2  754   0.124   0.911   3.107
  247SOL     OW  755   1.525   0.999   2.052
  247SOL    HW1  756   1.462   0.923   2.065
  247SOL    HW2  757   1.573   1.017   2.138
  248SOL     OW  758   1.187   1.792   3.478
  248SOL    HW1  759   1.211   1.852   3.402
  248SOL    HW2  760   1.194   1.697   3.448
  249SOL     OW  761   0.317   0.251   3.663
  249SOL    HW1  762   0.388   0.322   3.669
  249SOL    HW2  763   0.229   0.290   3.691
  250SOL     OW  764   1.466   1.417   2.815
  250SOL    HW1  765   1.407   1.423   2.895
  250SOL    HW2  766   1.451   1.329   2.769
  251SOL     OW  767   1.667   1.714   2.434
  251SOL    HW1  768   1.626   1.691   2.346
  251SOL    HW2  769   1.649   1.640   2.499
  252SOL     OW  770   0.598   0.729   2.132
  252SOL    HW1  771   0.622   0.798   2.064
  252SOL    HW2  772   0.520   0.762   2.186
  253SOL     OW  773   1.281   0.345   2.806
  253SOL    HW1  774   1.195   0.295   2.793
  253SOL    HW2  775   1.343   0.291   2.862
  254SOL     OW  776   1.576   1.662   2.169
  254SOL    HW1  777   1.665   1.708   2.172
  254SOL    HW2  778   1.555   1.638   2.074
  255SOL     OW  779   0.807   0.605   3.327
  255SOL    HW1  780   0.760   0.602   3.416
  255SOL    HW2  781   0.756   0.550   3.261
  256SOL     OW  782   1.394   0.469   3.536
  256SOL    HW1  783   1.374   0.512   3.624
  256SOL    HW2  784   1.472   0.407   3.545
  257SOL     OW  785   0.973   0.890   3.434
  257SOL    HW1  786   1.019   0.806   3.405
  257SOL    HW2  787   0.917   0.924   3.359
  258SOL     OW  788   0.991   0.410   3.104
  258SOL    HW1  789   0.914   0.444   3.158
  258SOL    HW2  790   0.957   0.359   3.025
  259SOL     OW  791   1.041   0.701   2.291
  259SOL    HW1  792   1.067   0.697   2.387
  259SOL    HW2  793   0.956   0.650   2.277
  260SOL     OW  794   0.076   0.811   2.651
  260SOL    HW1  795   0.175   0.799   2.660
  260SOL    HW2  796   0.052   0.906   2.672
  261SOL     OW  797   0.130   1.821   3.433
  261SOL    HW1  798   0.120   1.806   3.532
  261SOL    HW2  799   0.044   1.857   3.397
  262SOL     OW  800   0.865   0.348   2.057
  262SOL    HW1  801   0.924   0.411   2.008
  262SOL    HW2  802   0.884   0.254   2.028
  263SOL     OW  803   1.719   0.585   3.693
  263SOL    HW1  804   1.693   0.674   3.657
  263SOL    HW2  805   1.717   0.517   3.620
  264SOL     OW  806   1.362   1.144   2.407
  264SOL    HW1  807   1.445   1.115   2.359
  264SOL    HW2  808   1.313   1.211   2.351
  265SOL     OW  809   0.550   0.196   2.747
  265SOL    HW1  810   0.545   0.191   2.847
  265SOL    HW2  811   0.552   0.292   2.718
  266SOL     OW  812   1.008   1.456   2.339
  266SOL    HW1  813   0.962   1.528   2.287
  266SOL    HW2  814   1.004   1.476   2.437
  267SOL     OW  815   0.351   1.801   2.715
  267SOL    HW1  816   0.401   1.715   2.721
  267SOL    HW2  817   0.416   1.878   2.712
  268SOL     OW  818   1.795   1.066   2.735
  268SOL    HW1  819   1.733   1.051   2.659
  268SOL    HW2  820   1.743   1.077   2.820
  269SOL     OW  821   1.227   1.550   3.368
  269SOL    HW1  822   1.233   1.473   3.432
  269SOL    HW2  823   1.175   1.524   3.288
  270SOL     OW  824   0.321   0.943   2.104
  270SOL    HW1  825   0.403   0.982   2.062
  270SOL    HW2  826   0.294   0.861   2.055
  271SOL     OW  827   1.458   0.735   2.590
  271SOL    HW1  828   1.453   0.670   2.665
  271SOL    HW2  829   1.538   0.794   2.603
  272SOL     OW  830   0.461   1.266   3.589
  272SOL    HW1  831   0.411   1.267   3.503
  272SOL    HW2  832   0.398   1.248   3.665
  273SOL     OW  833   1.111   1.776   2.099
  273SOL    HW1  834   1.051   1.714   2.149
  273SOL    HW2  835   1.142   1.732   2.014
  274SOL     OW  836   0.202   0.285   3.360
  274SOL    HW1  837   0.122   0.345   3.347
  274SOL    HW2  838   0.192   0.236   3.446
  275SOL     OW  839   1.632   1.377   1.943
  275SOL    HW1  840   1.600   1.471   1.933
  275SOL    HW2  841   1.556   1.314   1.931
  276SOL     OW  842   0.464   1.743   2.185
  276SOL    HW1  843   0.497   1.782   2.271
  276SOL    HW2  844   0.540   1.736   2.120
  277SOL     OW  845   1.400   0.107   2.288
  277SOL    HW1  846   1.376   0.070   2.198
  277SOL    HW2  847   1.499   0.123   2.292
  278SOL     OW  848   0.249   1.785   3.103
  278SOL    HW1  849   0.306   1.720   3.153
  278SOL    HW2  850   0.233   1.752   3.010
  279SOL     OW  851   0.940   1.698   2.766
  279SOL    HW1  852   1.020   1.641   2.787
  279SOL    HW2  853   0.891   1.658   2.689
  280SOL     OW  854   0.382   0.700   2.342
  280SOL    HW1  855   0.427   0.610   2.339
  280SOL    HW2  856   0.288   0.689   2.375
  281SOL     OW  857   1.547   0.222   3.591
  281SOL    HW1  858   1.542   0.259   3.683
  281SOL    HW2  859   1.475   0.153   3.579
  282SOL     OW  860   0.614   0.122   1.979
  282SOL    HW1  861   0.712   0.100   1.986
  282SOL    HW2  862   0.583   0.105   1.886
  283SOL     OW  863   0.781   0.264   3.611
  283SOL    HW1  864   0.848   0.203   3.654
  283SOL    HW2  865   0.708   0.283   3.676
  284SOL     OW  866   0.888   1.514   3.057
  284SOL    HW1  867   0.865   1.489   2.963
  284SOL    HW2  868   0.949   1.445   3.096
  285SOL     OW  869   1.351   0.590   3.295
  285SOL    HW1  870   1.379   0.547   3.380
  285SOL    HW2  871   1.376   0.686   3.296
  286SOL     OW  872   0.803   1.402   2.786
  286SOL    HW1  873   0.893   1.416   2.744
  286SOL    HW2  874   0.732   1.404   2.715
  287SOL     OW  875   0.922   0.503   2.761
  287SOL    HW1  876   0.897   0.494   2.665
  287SOL    HW2  877   0.970   0.421   2.792
  288SOL     OW  878   0.539   0.064   2.374
  288SOL    HW1  879   0.458   0.065   2.432
  288SOL    HW2  880   0.542   0.147   2.319
  289SOL     OW  881   1.434   1.188   1.903
  289SOL    HW1  882   1.466   1.112   1.960
  289SOL    HW2  883   1.342   1.215   1.933
  290SOL     OW  884   0.297   0.035   2.033
  290SOL    HW1  885   0.346   0.119   2.012
  290SOL    HW2  886   0.359  -0.030   2.078
  291SOL     OW  887   0.935   0.236   2.342
  291SOL    HW1  888   0.887   0.277   2.264
  291SOL    HW2  889   1.034   0.234   2.323
  292SOL     OW  890   1.076   0.683   3.326
  292SOL    HW1  891   0.996   0.622   3.329
  292SOL    HW2  892   1.157   0.630   3.302
  293SOL     OW  893   1.227   1.570   2.655
  293SOL    HW1  894   1.248   1.644   2.590
  293SOL    HW2  895   1.295   1.570   2.728
  294SOL     OW  896   0.459   1.152   2.603
  294SOL    HW1  897   0.388   1.125   2.668
  294SOL    HW2  898   0.433   1.124   2.510
  295SOL     OW  899   1.271   1.797   2.453
  295SOL    HW1  900   1.315   1.861   2.389
  295SOL    HW2  901   1.221   1.849   2.523
  296SOL     OW  902   1.032   0.549   1.878
  296SOL    HW1  903   0.991   0.631   1.839
  296SOL    HW2  904   1.096   0.575   1.951
  297SOL     OW  905   0.078   0.556   3.248
  297SOL    HW1  906   0.170   0.555   3.207
  297SOL    HW2  907   0.072   0.630   3.315
  298SOL     OW  908   0.561   0.222   3.009
  298SOL    HW1  909   0.599   0.138   3.046
  298SOL    HW2  910   0.473   0.241   3.053
  299SOL     OW  911   0.866   0.454   2.504
  299SOL    HW1  912   0.834   0.526   2.442
  299SOL    HW2  913   0.890   0.373   2.451
  300SOL     OW  914   1.017   0.039   2.615
  300SOL    HW1  915   0.945   0.044   2.546
  300SOL    HW2  916   0.993  -0.030   2.684
  301SOL     OW  917   1.429   1.173   2.729
  301SOL    HW1  918   1.374   1.089   2.722
  301SOL    HW2  919   1.455   1.202   2.637
  302SOL     OW  920   1.466   0.590   2.854
  302SOL    HW1  921   1.436   0.495   2.861
  302SOL    HW2  922   1.539   0.606   2.920
  303SOL     OW  923   1.857   0.833   2.239
  303SOL    HW1  924   1.899   0.769   2.303
  303SOL    HW2  925   1.819   0.782   2.161
  304SOL     OW  926   0.488   1.385   2.036
  304SOL    HW1  927   0.401   1.370   2.083
  304SOL    HW2  928   0.471   1.411   1.941
  305SOL     OW  929   1.664   1.280   2.519
  305SOL    HW1  930   1.763   1.288   2.533
  305SOL    HW2  931   1.619   1.364   2.550
  306SOL     OW  932   1.390   0.575   1.940
  306SOL    HW1  933   1.336   0.554   2.021
  306SOL    HW2  934   1.481   0.534   1.949
  307SOL     OW  935   0.527   0.256   2.190
  307SOL    HW1  936   0.554   0.197   2.115
  307SOL    HW2  937   0.527   0.351   2.159
  308SOL     OW  938   1.754   1.223   3.450
  308SOL    HW1  939   1.845   1.184   3.437
  308SOL    HW2  940   1.762   1.319   3.474
  309SOL     OW  941   1.064   1.347   3.202
  309SOL    HW1  942   0.984   1.324   3.257
  309SOL    HW2  943   1.147   1.321   3.251
  310SOL     OW  944   1.592   1.629   3.487
  310SOL    HW1  945   1.619   1.663   3.397
  310SOL    HW2  946   1.671   1.591   3.533
  311SOL     OW  947   1.111   1.195   2.962
  311SOL    HW1  948   1.071   1.239   3.043
  311SOL    HW2  949   1.070   1.232   2.879
  312SOL     OW  950   1.638   1.099   2.941
  312SOL    HW1  951   1.643   1.180   3.000
  312SOL    HW2  952   1.552   1.101   2.890
  313SOL     OW  953   0.915   0.089   3.264
  313SOL    HW1  954   0.940   0.069   3.169
  313SOL    HW2  955   0.987   0.145   3.306
  314SOL     OW  956   0.980   1.116   3.581
  314SOL    HW1  957   0.881   1.122   3.591
  314SOL    HW2  958   1.003   1.036   3.525
  315SOL     OW  959   0.705   1.050   2.230
  315SOL    HW1  960   0.691   1.057   2.329
  315SOL    HW2  961   0.789   0.999   2.212
  316SOL     OW  962   0.410   0.813   3.113
  316SOL    HW1  963   0.496   0.825   3.163
  316SOL    HW2  964   0.368   0.726   3.140
  317SOL     OW  965   1.274   0.386   3.124
  317SOL    HW1  966   1.295   0.460   3.188
  317SOL    HW2  967   1.185   0.403   3.081
  318SOL     OW  968   0.064   1.564   3.193
  318SOL    HW1  969   0.018   1.646   3.159
  318SOL    HW2  970   0.162   1.583   3.202
  319SOL     OW  971   0.367   1.100   2.363
  319SOL    HW1  972   0.360   1.183   2.307
  319SOL    HW2  973   0.371   1.020   2.303
  320SOL     OW  974   0.566   0.537   2.727
  320SOL    HW1  975   0.578   0.603   2.653
  320SOL    HW2  976   0.612   0.571   2.810
  321SOL     OW  977   1.252   1.348   2.250
  321SOL    HW1  978   1.302   1.425   2.290
  321SOL    HW2  979   1.157   1.350   2.282
  322SOL     OW  980   1.272   1.445   3.004
  322SOL    HW1  981   1.319   1.458   3.091
  322SOL    HW2  982   1.206   1.371   3.013
  323SOL     OW  983   1.582   0.639   2.334
  323SOL    HW1  984   1.551   0.700   2.407
  323SOL    HW2  985   1.632   0.691   2.265
  324SOL     OW  986   0.354   1.510   3.191
  324SOL    HW1  987   0.333   1.466   3.104
  324SOL    HW2  988   0.451   1.536   3.194
  325SOL     OW  989   0.402   0.751   3.460
  325SOL    HW1  990   0.470   0.806   3.413
  325SOL    HW2  991   0.442   0.663   3.487
  326SOL     OW  992   1.587   0.779   3.532
  326SOL    HW1  993   1.495   0.817   3.527
  326SOL    HW2  994   1.647   0.826   3.467
  327SOL     OW  995   1.013   0.105   3.632
  327SOL    HW1  996   1.019   0.190   3.580
  327SOL    HW2  997   1.045   0.029   3.575
  328SOL     OW  998   0.504   0.050   3.602
  328SOL    HW1  999   0.462  -0.007   3.532
  328SOL    HW2 1000   0.438   0.119   3.634
  329SOL     OW 1001   0.573   0.870   2.891
  329SOL    HW1 1002   0.617   0.959   2.882
  329SOL    HW2 1003   0.510   0.870   2.968
  330SOL     OW 1004   1.360   0.862   2.907
  330SOL    HW1 1005   1.285   0.862   2.841
  330SOL    HW2 1006   1.397   0.770   2.916
  331SOL     OW 1007   1.209   0.525   2.137
  331SOL    HW1 1008   1.222   0.441   2.191
  331SOL    HW2 1009   1.180   0.599   2.197
  332SOL     OW 1010   0.307   0.213   3.093
  332SOL    HW1 1011   0.284   0.250   3.183
  332SOL    HW2 1012   0.277   0.118   3.087
  333SOL     OW 1013   0.037   1.310   3.144
  333SOL    HW1 1014   0.090   1.261   3.212
  333SOL    HW2 1015   0.059   1.408   3.149
  334SOL     OW 1016   0.732   0.634   2.926
  334SOL    HW1 1017   0.791   0.608   2.850
  334SOL    HW2 1018   0.704   0.730   2.915
  335SOL     OW 1019   1.728   0.935   3.716
  335SOL    HW1 1020   1.682   0.928   3.627
  335SOL    HW2 1021   1.666   0.979   3.782
  336SOL     OW 1022   0.307   0.063   2.480
  336SOL    HW1 1023   0.296   0.157   2.513
  336SOL    HW2 1024   0.302   0.000   2.557
  337SOL     OW 1025   1.622   0.367   2.236
  337SOL    HW1 1026   1.624   0.291   2.300
  337SOL    HW2 1027   1.574   0.444   2.276
  338SOL     OW 1028   1.023   0.766   2.828
  338SOL    HW1 1029   1.038   0.787   2.924
  338SOL    HW2 1030   0.993   0.671   2.819
  339SOL     OW 1031   0.980   1.573   3.562
  339SOL    HW1 1032   0.960   1.617   3.474
  339SOL    HW2 1033   1.019   1.482   3.546
  340SOL     OW 1034   1.859   1.518   3.467
  340SOL    HW1 1035   1.873   1.545   3.372
  340SOL    HW2 1036   1.942   1.540   3.520
  341SOL     OW 1037   0.350   0.898   3.666
  341SOL    HW1 1038   0.426   0.942   3.714
  341SOL    HW2 1039   0.385   0.851   3.584
  342SOL     OW 1040   1.540   0.274   1.987
  342SOL    HW1 1041   1.479   0.199   2.010
  342SOL    HW2 1042   1.562   0.326   2.070
  343SOL     OW 1043   1.303   0.838   1.904
  343SOL    HW1 1044   1.337   0.745   1.919
  343SOL    HW2 1045   1.321   0.865   1.809
  344SOL     OW 1046   1.068   1.333   2.711
  344SOL    HW1 1047   1.075   1.249   2.656
  344SOL    HW2 1048   1.130   1.402   2.675
  345SOL     OW 1049   0.319   0.810   2.811
  345SOL    HW1 1050   0.412   0.846   2.816
  345SOL    HW2 1051   0.313   0.725   2.863
  346SOL     OW 1052   0.339   0.509   2.868
  346SOL    HW1 1053   0.287   0.426   2.851
  346SOL    HW2 1054   0.416   0.514   2.804
  347SOL     OW 1055   1.138   0.380   3.540
  347SOL    HW1 1056   1.093   0.443   3.604
  347SOL    HW2 1057   1.231   0.411   3.523
  348SOL     OW 1058   1.160   0.207   3.339
  348SOL    HW1 1059   1.160   0.271   3.416
  348SOL    HW2 1060   1.188   0.255   3.256
  349SOL     OW 1061   0.008   1.326   2.062
  349SOL    HW1 1062  -0.085   1.347   2.031
  349SOL    HW2 1063   0.018   1.227   2.075
  350SOL     OW 1064   0.088   1.801   2.789
  350SOL    HW1 1065   0.046   1.715   2.762
  350SOL    HW2 1066   0.182   1.804   2.755
  351SOL     OW 1067   0.504   1.568   2.772
  351SOL    HW1 1068   0.570   1.642   2.781
  351SOL    HW2 1069   0.548   1.489   2.730
  352SOL     OW 1070   1.002   0.796   3.100
  352SOL    HW1 1071   1.043   0.764   3.186
  352SOL    HW2 1072   0.906   0.769   3.097
  353SOL     OW 1073   0.040   0.544   2.976
  353SOL    HW1 1074   0.125   0.511   2.935
  353SOL    HW2 1075   0.053   0.559   3.074
  354SOL     OW 1076   0.189   0.520   3.584
  354SOL    HW1 1077   0.248   0.480   3.514
  354SOL    HW2 1078   0.131   0.591   3.543
  355SOL     OW 1079   1.369   0.950   3.522
  355SOL    HW1 1080   1.408   1.039   3.542
  355SOL    HW2 1081   1.379   0.930   3.425
  356SOL     OW 1082   0.815   0.572   2.187
  356SOL    HW1 1083   0.822   0.483   2.141
  356SOL    HW2 1084   0.721   0.606   2.179
  357SOL     OW 1085   1.657   0.604   3.068
  357SOL    HW1 1086   1.619   0.535   3.130
  357SOL    HW2 1087   1.739   0.568   3.024
  358SOL     OW 1088   0.252   1.564   3.606
  358SOL    HW1 1089   0.222   1.621   3.682
  358SOL    HW2 1090   0.245   1.467   3.632
  359SOL     OW 1091   0.671   0.464   3.131
  359SOL    HW1 1092   0.637   0.375   3.101
  359SOL    HW2 1093   0.697   0.518   3.051
  360SOL     OW 1094   0.930   1.678   3.327
  360SOL    HW1 1095   0.906   1.660   3.232
  360SOL    HW2 1096   0.960   1.772   3.337
  361SOL     OW 1097   0.473   0.500   2.053
  361SOL    HW1 1098   0.534   0.580   2.057
  361SOL    HW2 1099   0.378   0.531   2.060
  362SOL     OW 1100   0.159   1.137   3.328
  362SOL    HW1 1101   0.181   1.076   3.404
  362SOL    HW2 1102   0.169   1.088   3.242
  363SOL     OW 1103   1.347   1.059   3.096
  363SOL    HW1 1104   1.371   0.996   3.022
  363SOL    HW2 1105   1.257   1.099   3.078
  364SOL     OW 1106   1.302   0.855   2.171
  364SOL    HW1 1107   1.216   0.824   2.213
  364SOL    HW2 1108   1.298   0.841   2.072
  365SOL     OW 1109   1.759   1.747   3.016
  365SOL    HW1 1110   1.820   1.777   2.943
  365SOL    HW2 1111   1.721   1.658   2.994
  366SOL     OW 1112   1.252   1.731   2.990
  366SOL    HW1 1113   1.336   1.736   2.936
  366SOL    HW2 1114   1.229   1.635   3.008
  367SOL     OW 1115   0.083   1.258   2.884
  367SOL    HW1 1116   0.078   1.257   2.984
  367SOL    HW2 1117   0.000   1.217   2.846
  368SOL     OW 1118   0.688   1.662   3.578
  368SOL    HW1 1119   0.632   1.743   3.587
  368SOL    HW2 1120   0.740   1.666   3.492
  369SOL     OW 1121   1.726   0.135   2.385
  369SOL    HW1 1122   1.799   0.118   2.318
  369SOL    HW2 1123   1.695   0.048   2.423
  370SOL     OW 1124   1.388   1.573   2.339
  370SOL    HW1 1125   1.455   1.585   2.265
  370SOL    HW2 1126   1.348   1.662   2.362
  371SOL     OW 1127   0.130   1.794   3.713
  371SOL    HW1 1128   0.089   1.720   3.766
  371SOL    HW2 1129   0.194   1.845   3.771
  372SOL     OW 1130   1.280   0.927   2.534
  372SOL    HW1 1131   1.340   0.846   2.536
  372SOL    HW2 1132   1.320   0.996   2.474
  373SOL     OW 1133   0.830   1.273   3.284
  373SOL    HW1 1134   0.825   1.306   3.379
  373SOL    HW2 1135   0.744   1.292   3.238
  374SOL     OW 1136   0.672   1.616   2.016
  374SOL    HW1 1137   0.681   1.626   1.917
  374SOL    HW2 1138   0.632   1.527   2.037
  375SOL     OW 1139   1.650   1.720   3.256
  375SOL    HW1 1140   1.703   1.730   3.172
  375SOL    HW2 1141   1.623   1.810   3.290
  376SOL     OW 1142   1.841   0.175   2.825
  376SOL    HW1 1143   1.880   0.090   2.789
  376SOL    HW2 1144   1.743   0.177   2.806
  377SOL     OW 1145   0.263   0.326   2.582
  377SOL    HW1 1146   0.184   0.377   2.548
  377SOL    HW2 1147   0.254   0.311   2.680
  378SOL     OW 1148   1.194   1.612   1.893
  378SOL    HW1 1149   1.200   1.519   1.930
  378SOL    HW2 1150   1.135   1.612   1.813
  379SOL     OW 1151   0.822   1.002   3.234
  379SOL    HW1 1152   0.862   1.001   3.142
  379SOL    HW2 1153   0.832   1.094   3.274
  380SOL     OW 1154   0.916   0.910   2.153
  380SOL    HW1 1155   0.979   0.948   2.085
  380SOL    HW2 1156   0.956   0.827   2.192
  381SOL     OW 1157   1.504   1.607   1.906
  381SOL    HW1 1158   1.412   1.644   1.913
  381SOL    HW2 1159   1.542   1.627   1.816
  382SOL     OW 1160   0.372   1.288   3.352
  382SOL    HW1 1161   0.359   1.381   3.318
  382SOL    HW2 1162   0.288   1.236   3.339
  383SOL     OW 1163   1.614   1.292   3.151
  383SOL    HW1 1164   1.674   1.295   3.231
  383SOL    HW2 1165   1.539   1.356   3.164
  384SOL     OW 1166   1.039   1.098   2.558
  384SOL    HW1 1167   0.969   1.051   2.612
  384SOL    HW2 1168   1.098   1.030   2.515
  385SOL     OW 1169   1.014   0.236   2.833
  385SOL    HW1 1170   1.006   0.200   2.740
  385SOL    HW2 1171   1.012   0.160   2.898
  386SOL     OW 1172   0.590   1.487   2.353
  386SOL    HW1 1173   0.632   1.429   2.283
  386SOL    HW2 1174   0.546   1.566   2.309
  387SOL     OW 1175   1.709   0.385   3.243
  387SOL    HW1 1176   1.782   0.454   3.247
  387SOL    HW2 1177   1.737   0.310   3.184
  388SOL     OW 1178   0.255   1.348   2.152
  388SOL    HW1 1179   0.159   1.349   2.125
  388SOL    HW2 1180   0.267   1.401   2.236
  389SOL     OW 1181   0.105   1.013   3.588
  389SOL    HW1 1182   0.028   0.980   3.642
  389SOL    HW2 1183   0.190   0.983   3.630
  390SOL     OW 1184   0.672   0.203   3.351
  390SOL    HW1 1185   0.762   0.187   3.311
  390SOL    HW2 1186   0.680   0.208   3.450
  391SOL     OW 1187   0.075   0.345   1.895
  391SOL    HW1 1188  -0.017   0.317   1.866
  391SOL    HW2 1189   0.106   0.422   1.839
  392SOL     OW 1190   1.440   0.856   3.260
  392SOL    HW1 1191   1.383   0.908   3.197
  392SOL    HW2 1192   1.536   0.868   3.236
  393SOL     OW 1193   0.072   0.166   2.180
  393SOL    HW1 1194   0.055   0.249   2.126
  393SOL    HW2 1195   0.162   0.129   2.158
  394SOL     OW 1196   1.183   1.335   1.981
  394SOL    HW1 1197   1.084   1.324   1.983
  394SOL    HW2 1198   1.217   1.350   2.074
  395SOL     OW 1199   0.613   0.842   3.293
  395SOL    HW1 1200   0.669   0.923   3.276
  395SOL    HW2 1201   0.672   0.762   3.296
  396SOL     OW 1202   1.493   1.767   2.821
  396SOL    HW1 1203   1.526   1.831   2.752
  396SOL    HW2 1204   1.559   1.761   2.896
  397SOL     OW 1205   0.716   0.565   3.570
  397SOL    HW1 1206   0.735   0.630   3.644
  397SOL    HW2 1207   0.776   0.485   3.579
  398SOL     OW 1208   1.450   1.220   3.495
  398SOL    HW1 1209   1.441   1.210   3.594
  398SOL    HW2 1210   1.546   1.213   3.469
  399SOL     OW 1211   0.390   1.741   3.422
  399SOL    HW1 1212   0.299   1.782   3.420
  399SOL    HW2 1213   0.383   1.647   3.454
  400SOL     OW 1214   1.674   0.883   3.116
  400SOL    HW1 1215   1.647   0.794   3.079
  400SOL    HW2 1216   1.675   0.951   3.043
  401SOL     OW 1217   1.225   0.325   2.311
  401SOL    HW1 1218   1.290   0.251   2.300
  401SOL    HW2 1219   1.245   0.375   2.395
  402SOL     OW 1220   0.594   0.745   2.514
  402SOL    HW1 1221   0.644   0.830   2.495
  402SOL    HW2 1222   0.506   0.747   2.466
  403SOL     OW 1223   1.777   0.342   3.504
  403SOL    HW1 1224   1.760   0.373   3.410
  403SOL    HW2 1225   1.693   0.305   3.542
  404SOL     OW 1226   1.730   0.934   3.379
  404SOL    HW1 1227   1.768   1.025   3.394
  404SOL    HW2 1228   1.722   0.917   3.280
  405SOL     OW 1229   0.859   1.374   1.878
  405SOL    HW1 1230   0.813   1.389   1.966
  405SOL    HW2 1231   0.903   1.459   1.848
  406SOL     OW 1232   0.661   1.790   2.815
  406SOL    HW1 1233   0.615   1.878   2.802
  406SOL    HW2 1234   0.760   1.802   2.808
  407SOL     OW 1235   0.859   0.956   2.723
  407SOL    HW1 1236   0.913   0.887   2.771
  407SOL    HW2 1237   0.827   1.025   2.789
  408SOL     OW 1238   1.083   0.984   1.949
  408SOL    HW1 1239   1.060   1.037   1.867
  408SOL    HW2 1240   1.164   0.928   1.930
  409SOL     OW 1241   1.861   1.569   2.713
  409SOL    HW1 1242   1.790   1.557   2.643
  409SOL    HW2 1243   1.862   1.490   2.773
  410SOL     OW 1244   0.221   1.314   3.706
  410SOL    HW1 1245   0.156   1.241   3.685
  410SOL    HW2 1246   0.225   1.328   3.804
  411SOL     OW 1247   0.079   1.240   2.515
  411SOL    HW1 1248   0.078   1.193   2.603
  411SOL    HW2 1249   0.161   1.212   2.464
  412SOL     OW 1250   0.672   1.391   3.486
  412SOL    HW1 1251   0.594   1.341   3.524
  412SOL    HW2 1252   0.669   1.486   3.517
  413SOL     OW 1253   1.824   0.192   3.089
  413SOL    HW1 1254   1.820   0.102   3.133
  413SOL    HW2 1255   1.827   0.181   2.990
  414SOL     OW 1256   0.428   0.424   2.382
  414SOL    HW1 1257   0.458   0.352   2.320
  414SOL    HW2 1258   0.389   0.384   2.465
  415SOL     OW 1259   1.705   1.487   2.966
  415SOL    HW1 1260   1.612   1.462   2.939
  415SOL    HW2 1261   1.731   1.437   3.048
  416SOL     OW 1262   0.317   0.547   3.142
  416SOL    HW1 1263   0.355   0.488   3.214
  416SOL    HW2 1264   0.357   0.521   3.054
  417SOL     OW 1265   0.812   1.586   2.549
  417SOL    HW1 1266   0.844   1.596   2.455
  417SOL    HW2 1267   0.733   1.524   2.551
  418SOL     OW 1268   1.424   0.214   2.974
  418SOL    HW1 1269   1.476   0.149   3.029
  418SOL    HW2 1270   1.375   0.277   3.035
  419SOL     OW 1271   1.001   0.034   3.016
  419SOL    HW1 1272   0.938  -0.038   2.985
  419SOL    HW2 1273   1.094  -0.002   3.016
  420SOL     OW 1274   0.770   1.330   2.163
  420SOL    HW1 1275   0.724   1.243   2.180
  420SOL    HW2 1276   0.861   1.327   2.204
  421SOL     OW 1277   0.618   1.567   3.146
  421SOL    HW1 1278   0.613   1.649   3.203
  421SOL    HW2 1279   0.707   1.564   3.101
  422SOL     OW 1280   1.352   0.052   2.030
  422SOL    HW1 1281   1.387   0.011   1.946
  422SOL    HW2 1282   1.262   0.014   2.050
  423SOL     OW 1283   1.300   0.453   2.553
  423SOL    HW1 1284   1.241   0.533   2.557
  423SOL    HW2 1285   1.315   0.418   2.646
  424SOL     OW 1286   1.593   0.221   2.744
  424SOL    HW1 1287   1.509   0.220   2.798
  424SOL    HW2 1288   1.595   0.304   2.688
  425SOL     OW 1289   0.039   1.077   2.162
  425SOL    HW1 1290   0.138   1.066   2.153
  425SOL    HW2 1291  -0.001   0.991   2.194
  426SOL     OW 1292   0.875   1.646   2.199
  426SOL    HW1 1293   0.798   1.611   2.145
  426SOL    HW2 1294   0.843   1.717   2.261
  427SOL     OW 1295   0.230   0.628   3.837
  427SOL    HW1 1296   0.137   0.626   3.874
  427SOL    HW2 1297   0.231   0.589   3.745
  428SOL     OW 1298   0.019   0.368   4.371
  428SOL    HW1 1299  -0.063   0.411   4.410
  428SOL    HW2 1300  -0.009   0.295   4.308
  429SOL     OW 1301   1.555   1.511   4.427
  429SOL    HW1 1302   1.498   1.495   4.508
  429SOL    HW2 1303   1.496   1.521   4.347
  430SOL     OW 1304   1.135   0.703   4.441
  430SOL    HW1 1305   1.192   0.781   4.416
  430SOL    HW2 1306   1.075   0.729   4.517
  431SOL     OW 1307   1.755   0.607   3.955
  431SOL    HW1 1308   1.743   0.594   3.856
  431SOL    HW2 1309   1.725   0.526   4.004
  432SOL     OW 1310   0.768   1.144   4.747
  432SOL    HW1 1311   0.690   1.161   4.807
  432SOL    HW2 1312   0.802   1.231   4.711
  433SOL     OW 1313   0.685   1.012   4.389
  433SOL    HW1 1314   0.754   0.996   4.459
  433SOL    HW2 1315   0.612   1.069   4.427
  434SOL     OW 1316   1.603   0.447   4.461
  434SOL    HW1 1317   1.529   0.493   4.411
  434SOL    HW2 1318   1.654   0.515   4.514
  435SOL     OW 1319   0.231   1.713   4.207
  435SOL    HW1 1320   0.265   1.790   4.261
  435SOL    HW2 1321   0.275   1.713   4.117
  436SOL     OW 1322   0.230   1.434   4.262
  436SOL    HW1 1323   0.204   1.530   4.262
  436SOL    HW2 1324   0.159   1.380   4.307
  437SOL     OW 1325   0.240   1.091   4.610
  437SOL    HW1 1326   0.254   1.007   4.662
  437SOL    HW2 1327   0.185   1.155   4.665
  438SOL     OW 1328   0.606   0.964   3.847
  438SOL    HW1 1329   0.613   1.048   3.793
  438SOL    HW2 1330   0.652   0.977   3.935
  439SOL     OW 1331   0.122   0.643   4.287
  439SOL    HW1 1332   0.077   0.555   4.304
  439SOL    HW2 1333   0.121   0.697   4.371
  440SOL     OW 1334   1.842   1.767   4.083
  440SOL    HW1 1335   1.896   1.738   4.163
  440SOL    HW2 1336   1.872   1.857   4.054
  441SOL     OW 1337   0.027   1.596   3.841
  441SOL    HW1 1338   0.008   1.500   3.862
  441SOL    HW2 1339  -0.006   1.654   3.916
  442SOL     OW 1340   1.689   0.922   4.336
  442SOL    HW1 1341   1.784   0.893   4.344
  442SOL    HW2 1342   1.681   0.987   4.261
  443SOL     OW 1343   1.641   1.108   4.156
  443SOL    HW1 1344   1.727   1.110   4.104
  443SOL    HW2 1345   1.655   1.155   4.244
  444SOL     OW 1346   0.613   1.365   4.450
  444SOL    HW1 1347   0.564   1.278   4.459
  444SOL    HW2 1348   0.590   1.408   4.363
  445SOL     OW 1349   0.809   0.004   4.226
  445SOL    HW1 1350   0.849   0.095   4.217
  445SOL    HW2 1351   0.709   0.012   4.232
  446SOL     OW 1352   1.525   0.999   3.914
  446SOL    HW1 1353   1.462   0.923   3.927
  446SOL    HW2 1354   1.573   1.017   4.000
  447SOL     OW 1355   1.667   1.714   4.296
  447SOL    HW1 1356   1.626   1.691   4.208
  447SOL    HW2 1357   1.649   1.640   4.361
  448SOL     OW 1358   0.598   0.729   3.994
  448SOL    HW1 1359   0.622   0.798   3.926
  448SOL    HW2 1360   0.520   0.762   4.048
  449SOL     OW 1361   1.281   0.345   4.668
  449SOL    HW1 1362   1.195   0.295   4.655
  449SOL    HW2 1363   1.343   0.291   4.724
  450SOL     OW 1364   1.576   1.662   4.031
  450SOL    HW1 1365   1.665   1.708   4.034
  450SOL    HW2 1366   1.555   1.638   3.936
  451SOL     OW 1367   1.041   0.701   4.153
  451SOL    HW1 1368   1.067   0.697   4.249
  451SOL    HW2 1369   0.956   0.650   4.139
  452SOL     OW 1370   0.076   0.811   4.513
  452SOL    HW1 1371   0.175   0.799   4.522
  452SOL    HW2 1372   0.052   0.906   4.534
  453SOL     OW 1373   0.865   0.348   3.919
  453SOL    HW1 1374   0.924   0.411   3.870
  453SOL    HW2 1375   0.884   0.254   3.890
  454SOL     OW 1376   1.362   1.144   4.269
  454SOL    HW1 1377   1.445   1.115   4.221
  454SOL    HW2 1378   1.313   1.211   4.213
  455SOL     OW 1379   1.008   1.456   4.201
  455SOL    HW1 1380   0.962   1.528   4.149
  455SOL    HW2 1381   1.004   1.476   4.299
  456SOL     OW 1382   0.351   1.801   4.577
  456SOL    HW1 1383   0.401   1.715   4.583
  456SOL    HW2 1384   0.416   1.878   4.574
  457SOL     OW 1385   1.795   1.066   4.597
  457SOL    HW1 1386   1.733   1.051   4.521
  457SOL    HW2 1387   1.743   1.077   4.682
  458SOL     OW 1388   0.321   0.943   3.966
  458SOL    HW1 1389   0.403   0.982   3.924
  458SOL    HW2 1390   0.294   0.861   3.917
  459SOL     OW 1391   1.458   0.735   4.452
  459SOL    HW1 1392   1.453   0.670   4.527
  459SOL    HW2 1393   1.538   0.794   4.465
  460SOL     OW 1394   1.111   1.776   3.961
  460SOL    HW1 1395   1.051   1.714   4.011
  460SOL    HW2 1396   1.142   1.732   3.876
  461SOL     OW 1397   1.632   1.377   3.805
  461SOL    HW1 1398   1.600   1.471   3.795
  461SOL    HW2 1399   1.556   1.314   3.793
  462SOL     OW 1400   0.464   1.743   4.047
  462SOL    HW1 1401   0.497   1.782   4.133
  462SOL    HW2 1402   0.540   1.736   3.982
  463SOL     OW 1403   1.400   0.107   4.150
  463SOL    HW1 1404   1.376   0.070   4.060
  463SOL    HW2 1405   1.499   0.123   4.154
  464SOL     OW 1406   0.382   0.700   4.204
  464SOL    HW1 1407   0.427   0.610   4.201
  464SOL    HW2 1408   0.288   0.689   4.237
  465SOL     OW 1409   0.614   0.122   3.841
  465SOL    HW1 1410   0.712   0.100   3.848
  465SOL    HW2 1411   0.583   0.105   3.748
  466SOL     OW 1412   0.539   0.064   4.236
  466SOL    HW1 1413   0.458   0.065   4.294
  466SOL    HW2 1414   0.542   0.147   4.181
  467SOL     OW 1415   1.434   1.188   3.765
  467SOL    HW1 1416   1.466   1.112   3.822
  467SOL    HW2 1417   1.342   1.215   3.795
  468SOL     OW 1418   0.297   0.035   3.895
  468SOL    HW1 1419   0.346   0.119   3.874
  468SOL    HW2 1420   0.359  -0.030   3.940
  469SOL     OW 1421   0.935   0.236   4.204
  469SOL    HW1 1422   0.887   0.277   4.126
  469SOL    HW2 1423   1.034   0.234   4.185
  470SOL     OW 1424   0.459   1.152   4.465
  470SOL    HW1 1425   0.388   1.125   4.530
  470SOL    HW2 1426   0.433   1.124   4.372
  471SOL     OW 1427   1.271   1.797   4.315
  471SOL    HW1 1428   1.315   1.861   4.251
  471SOL    HW2 1429   1.221   1.849   4.385
  472SOL     OW 1430   1.032   0.549   3.740
  472SOL    HW1 1431   0.991   0.631   3.701
  472SOL    HW2 1432   1.096   0.575   3.813
  473SOL     OW 1433   0.866   0.454   4.366
  473SOL    HW1 1434   0.834   0.526   4.304
  473SOL    HW2 1435   0.890   0.373   4.313
  474SOL     OW 1436   1.017   0.039   4.477
  474SOL    HW1 1437   0.945   0.044   4.408
  474SOL    HW2 1438   0.993  -0.030   4.546
  475SOL     OW 1439   1.857   0.833   4.101
  475SOL    HW1 1440   1.899   0.769   4.165
  475SOL    HW2 1441   1.819   0.782   4.023
  476SOL     OW 1442   0.488   1.385   3.898
  476SOL    HW1 1443   0.401   1.370   3.945
  476SOL    HW2 1444   0.471   1.411   3.803
  477SOL     OW 1445   1.664   1.280   4.381
  477SOL    HW1 1446   1.763   1.288   4.395
  477SOL    HW2 1447   1.619   1.364   4.412
  478SOL     OW 1448   1.390   0.575   3.802
  478SOL    HW1 1449   1.336   0.554   3.883
  478SOL    HW2 1450   1.481   0.534   3.811
  479SOL     OW 1451   0.527   0.256   4.052
  479SOL    HW1 1452   0.554   0.197   3.977
  479SOL    HW2 1453   0.527   0.351   4.021
  480SOL     OW 1454   0.705   1.050   4.092
  480SOL    HW1 1455   0.691   1.057   4.191
  480SOL    HW2 1456   0.789   0.999   4.074
  481SOL     OW 1457   0.367   1.100   4.225
  481SOL    HW1 1458   0.360   1.183   4.169
  481SOL    HW2 1459   0.371   1.020   4.165
  482SOL     OW 1460   0.566   0.537   4.589
  482SOL    HW1 1461   0.578   0.603   4.515
  482SOL    HW2 1462   0.612   0.571   4.672
  483SOL     OW 1463   1.252   1.348   4.112
  483SOL    HW1 1464   1.302   1.425   4.152
  483SOL    HW2 1465   1.157   1.350   4.144
  484SOL     OW 1466   1.582   0.639   4.196
  484SOL    HW1 1467   1.551   0.700   4.269
  484SOL    HW2 1468   1.632   0.691   4.127
  485SOL     OW 1469   1.209   0.525   3.999
  485SOL    HW1 1470   1.222   0.441   4.053
  485SOL    HW2 1471   1.180   0.599   4.059
  486SOL     OW 1472   0.307   0.063   4.342
  486SOL    HW1 1473   0.296   0.157   4.375
  486SOL    HW2 1474   0.302   0.000   4.419
  487SOL     OW 1475   1.622   0.367   4.098
  487SOL    HW1 1476   1.624   0.291   4.162
  487SOL    HW2 1477   1.574   0.444   4.138
  488SOL     OW 1478   1.540   0.274   3.849
  488SOL    HW1 1479   1.479   0.199   3.872
  488SOL    HW2 1480   1.562   0.326   3.932
  489SOL     OW 1481   1.303   0.838   3.766
  489SOL    HW1 1482   1.337   0.745   3.781
  489SOL    HW2 1483   1.321   0.865   3.671
  490SOL     OW 1484   1.068   1.333   4.573
  490SOL    HW1 1485   1.075   1.249   4.518
  490SOL    HW2 1486   1.130   1.402   4.537
  491SOL     OW 1487   0.008   1.326   3.924
  491SOL    HW1 1488  -0.085   1.347   3.893
  491SOL    HW2 1489   0.018   1.227   3.937
  492SOL     OW 1490   0.088   1.801   4.651
  492SOL    HW1 1491   0.046   1.715   4.624
  492SOL    HW2 1492   0.182   1.804   4.617
  493SOL     OW 1493   0.815   0.572   4.049
  493SOL    HW1 1494   0.822   0.483   4.003
  493SOL    HW2 1495   0.721   0.606   4.041
  494SOL     OW 1496   0.473   0.500   3.915
  494SOL    HW1 1497   0.534   0.580   3.919
  494SOL    HW2 1498   0.378   0.531   3.922
  495SOL     OW 1499   1.302   0.855   4.033
  495SOL    HW1 1500   1.216   0.824   4.075
  495SOL    HW2 1501   1.298   0.841   3.934
  496SOL     OW 1502   1.726   0.135   4.247
  496SOL    HW1 1503   1.799   0.118   4.180
  496SOL    HW2 1504   1.695   0.048   4.285
  497SOL     OW 1505   1.388   1.573   4.201
  497SOL    HW1 1506   1.455   1.585   4.127
  497SOL    HW2 1507   1.348   1.662   4.224
  498SOL     OW 1508   1.280   0.927   4.396
  498SOL    HW1 1509   1.340   0.846   4.398
  498SOL    HW2 1510   1.320   0.996   4.336
  499SOL     OW 1511   0.672   1.616   3.878
  499SOL    HW1 1512   0.681   1.626   3.779
  499SOL    HW2 1513   0.632   1.527   3.899
  500SOL     OW 1514   1.841   0.175   4.687
  500SOL    HW1 1515   1.880   0.090   4.651
  500SOL    HW2 1516   1.743   0.177   4.668
  501SOL     OW 1517   0.263   0.326   4.444
  501SOL    HW1 1518   0.184   0.377   4.410
  501SOL    HW2 1519   0.254   0.311   4.542
  502SOL     OW 1520   1.194   1.612   3.755
  502SOL    HW1 1521   1.200   1.519   3.792
  502SOL    HW2 1522   1.135   1.612   3.675
  503SOL     OW 1523   0.916   0.910   4.015
  503SOL    HW1 1524   0.979   0.948   3.947
  503SOL    HW2 1525   0.956   0.827   4.054
  504SOL     OW 1526   1.504   1.607   3.768
  504SOL    HW1 1527   1.412   1.644   3.775
  504SOL    HW2 1528   1.542   1.627   3.678
  505SOL     OW 1529   1.039   1.098   4.420
  505SOL    HW1 1530   0.969   1.051   4.474
  505SOL    HW2 1531   1.098   1.030   4.377
  506SOL     OW 1532   0.590   1.487   4.215
  506SOL    HW1 1533   0.632   1.429   4.145
  506SOL    HW2 1534   0.546   1.566   4.171
  507SOL     OW 1535   0.255   1.348   4.014
  507SOL    HW1 1536   0.159   1.349   3.987
  507SOL    HW2 1537   0.267   1.401   4.098
  508SOL     OW 1538   0.075   0.345   3.757
  508SOL    HW1 1539  -0.017   0.317   3.728
  508SOL    HW2 1540   0.106   0.422   3.701
  509SOL     OW 1541   0.072   0.166   4.042
  509SOL    HW1 1542   0.055   0.249   3.988
  509SOL    HW2 1543   0.162   0.129   4.020
  510SOL     OW 1544   1.183   1.335   3.843
  510SOL    HW1 1545   1.084   1.324   3.845
  510SOL    HW2 1546   1.217   1.350   3.936
  511SOL     OW 1547   1.225   0.325   4.173
  511SOL    HW1 1548   1.290   0.251   4.162
  511SOL    HW2 1549   1.245   0.375   4.257
  512SOL     OW 1550   0.594   0.745   4.376
  512SOL    HW1 1551   0.644   0.830   4.357
  512SOL    HW2 1552   0.506   0.747   4.328
  513SOL     OW 1553   0.859   1.374   3.740
  513SOL    HW1 1554   0.813   1.389   3.828
  513SOL    HW2 1555   0.903   1.459   3.710
  514SOL     OW 1556   0.661   1.790   4.677
  514SOL    HW1 1557   0.615   1.878   4.664
  514SOL    HW2 1558   0.760   1.802   4.670
  515SOL     OW 1559   0.859   0.956   4.585
  515SOL    HW1 1560   0.913   0.887   4.633
  515SOL    HW2 1561   0.827   1.025   4.651
  516SOL     OW 1562   1.083   0.984   3.811
  516SOL    HW1 1563   1.060   1.037   3.729
  516SOL    HW2 1564   1.164   0.928   3.792
  517SOL     OW 1565   1.861   1.569   4.575
  517SOL    HW1 1566   1.790   1.557   4.505
  517SOL    HW2 1567   1.862   1.490   4.635
  518SOL     OW 1568   0.079   1.240   4.377
  518SOL    HW1 1569   0.078   1.193   4.465
  518SOL    HW2 1570   0.161   1.212   4.326
  519SOL     OW 1571   0.428   0.424   4.244
  519SOL    HW1 1572   0.458   0.352   4.182
  519SOL    HW2 1573   0.389   0.384   4.327
  520SOL     OW 1574   0.812   1.586   4.411
  520SOL    HW1 1575   0.844   1.596   4.317
  520SOL    HW2 1576   0.733   1.524   4.413
  521SOL     OW 1577   0.770   1.330   4.025
  521SOL    HW1 1578   0.724   1.243   4.042
  521SOL    HW2 1579   0.861   1.327   4.066
  522SOL     OW 1580   1.352   0.052   3.892
  522SOL    HW1 1581   1.387   0.011   3.808
  522SOL    HW2 1582   1.262   0.014   3.912
  523SOL     OW 1583   1.300   0.453   4.415
  523SOL    HW1 1584   1.241   0.533   4.419
  523SOL    HW2 1585   1.315   0.418   4.508
  524SOL     OW 1586   0.039   1.077   4.024
  524SOL    HW1 1587   0.138   1.066   4.015
  524SOL    HW2 1588  -0.001   0.991   4.056
  525SOL     OW 1589   0.875   1.646   4.061
  525SOL    HW1 1590   0.798   1.611   4.007
  525SOL    HW2 1591   0.843   1.717   4.123
  526SOL     OW 1592   0.230   2.490   0.113
  526SOL    HW1 1593   0.137   2.488   0.150
  526SOL    HW2 1594   0.231   2.451   0.021
  527SOL     OW 1595   0.225   2.137   0.996
  527SOL    HW1 1596   0.260   2.120   1.088
  527SOL    HW2 1597   0.137   2.092   0.984
  528SOL     OW 1598   0.019   2.230   0.647
  528SOL    HW1 1599  -0.063   2.273   0.686
  528SOL    HW2 1600  -0.009   2.157   0.584
  529SOL     OW 1601   0.569   3.137   1.165
  529SOL    HW1 1602   0.476   3.130   1.128
  529SOL    HW2 1603   0.580   3.226   1.209
  530SOL     OW 1604   1.555   3.373   0.703
  530SOL    HW1 1605   1.498   3.357   0.784
  530SOL    HW2 1606   1.496   3.383   0.623
  531SOL     OW 1607   1.135   2.565   0.717
  531SOL    HW1 1608   1.192   2.643   0.692
  531SOL    HW2 1609   1.075   2.591   0.793
  532SOL     OW 1610   1.755   2.469   0.231
  532SOL    HW1 1611   1.743   2.456   0.132
  532SOL    HW2 1612   1.725   2.388   0.280
  533SOL     OW 1613   0.768   3.006   1.023
  533SOL    HW1 1614   0.690   3.023   1.083
  533SOL    HW2 1615   0.802   3.093   0.987
  534SOL     OW 1616   0.850   2.660   1.823
  534SOL    HW1 1617   0.846   2.736   1.888
  534SOL    HW2 1618   0.872   2.696   1.732
  535SOL     OW 1619   0.685   2.874   0.665
  535SOL    HW1 1620   0.754   2.858   0.735
  535SOL    HW2 1621   0.612   2.931   0.703
  536SOL     OW 1622   0.686   3.023   1.803
  536SOL    HW1 1623   0.746   3.102   1.817
  536SOL    HW2 1624   0.600   3.054   1.762
  537SOL     OW 1625   0.335   3.297   1.061
  537SOL    HW1 1626   0.257   3.266   1.008
  537SOL    HW2 1627   0.393   3.355   1.004
  538SOL     OW 1628   1.460   3.367   1.339
  538SOL    HW1 1629   1.484   3.461   1.365
  538SOL    HW2 1630   1.444   3.313   1.421
  539SOL     OW 1631   0.438   2.254   1.499
  539SOL    HW1 1632   0.520   2.198   1.508
  539SOL    HW2 1633   0.357   2.196   1.503
  540SOL     OW 1634   1.603   2.309   0.737
  540SOL    HW1 1635   1.529   2.355   0.687
  540SOL    HW2 1636   1.654   2.377   0.790
  541SOL     OW 1637   0.231   3.575   0.483
  541SOL    HW1 1638   0.265   3.652   0.537
  541SOL    HW2 1639   0.275   3.575   0.393
  542SOL     OW 1640   1.127   3.203   1.690
  542SOL    HW1 1641   1.174   3.203   1.778
  542SOL    HW2 1642   1.079   3.116   1.679
  543SOL     OW 1643   0.230   3.296   0.538
  543SOL    HW1 1644   0.204   3.392   0.538
  543SOL    HW2 1645   0.159   3.242   0.583
  544SOL     OW 1646   0.240   2.953   0.886
  544SOL    HW1 1647   0.254   2.869   0.938
  544SOL    HW2 1648   0.185   3.017   0.941
  545SOL     OW 1649   0.620   3.648   1.439
  545SOL    HW1 1650   0.528   3.631   1.474
  545SOL    HW2 1651   0.648   3.740   1.465
  546SOL     OW 1652   0.606   2.826   0.123
  546SOL    HW1 1653   0.613   2.910   0.069
  546SOL    HW2 1654   0.652   2.839   0.211
  547SOL     OW 1655   1.594   1.976   1.480
  547SOL    HW1 1656   1.576   2.043   1.408
  547SOL    HW2 1657   1.591   2.022   1.569
  548SOL     OW 1658   0.122   2.505   0.563
  548SOL    HW1 1659   0.077   2.417   0.580
  548SOL    HW2 1660   0.121   2.559   0.647
  549SOL     OW 1661   1.842   3.629   0.359
  549SOL    HW1 1662   1.896   3.600   0.439
  549SOL    HW2 1663   1.872   3.719   0.330
  550SOL     OW 1664   0.027   3.458   0.117
  550SOL    HW1 1665   0.008   3.362   0.138
  550SOL    HW2 1666  -0.006   3.516   0.192
  551SOL     OW 1667   1.689   2.784   0.612
  551SOL    HW1 1668   1.784   2.755   0.620
  551SOL    HW2 1669   1.681   2.849   0.537
  552SOL     OW 1670   1.641   2.970   0.432
  552SOL    HW1 1671   1.727   2.972   0.380
  552SOL    HW2 1672   1.655   3.017   0.520
  553SOL     OW 1673   0.113   2.599   1.597
  553SOL    HW1 1674   0.201   2.586   1.642
  553SOL    HW2 1675   0.100   2.696   1.575
  554SOL     OW 1676   0.613   3.227   0.726
  554SOL    HW1 1677   0.564   3.140   0.735
  554SOL    HW2 1678   0.590   3.270   0.639
  555SOL     OW 1679   1.293   3.090   1.423
  555SOL    HW1 1680   1.330   3.017   1.365
  555SOL    HW2 1681   1.345   3.095   1.508
  556SOL     OW 1682   0.809   1.866   0.502
  556SOL    HW1 1683   0.849   1.957   0.493
  556SOL    HW2 1684   0.709   1.874   0.508
  557SOL     OW 1685   0.197   2.838   1.264
  557SOL    HW1 1686   0.286   2.793   1.250
  557SOL    HW2 1687   0.124   2.773   1.245
  558SOL     OW 1688   1.525   2.861   0.190
  558SOL    HW1 1689   1.462   2.785   0.203
  558SOL    HW2 1690   1.573   2.879   0.276
  559SOL     OW 1691   1.187   3.654   1.616
  559SOL    HW1 1692   1.211   3.714   1.540
  559SOL    HW2 1693   1.194   3.559   1.586
  560SOL     OW 1694   0.317   2.113   1.801
  560SOL    HW1 1695   0.388   2.184   1.807
  560SOL    HW2 1696   0.229   2.152   1.829
  561SOL     OW 1697   1.466   3.279   0.953
  561SOL    HW1 1698   1.407   3.285   1.033
  561SOL    HW2 1699   1.451   3.191   0.907
  562SOL     OW 1700   1.667   3.576   0.572
  562SOL    HW1 1701   1.626   3.553   0.484
  562SOL    HW2 1702   1.649   3.502   0.637
  563SOL     OW 1703   0.598   2.591   0.270
  563SOL    HW1 1704   0.622   2.660   0.202
  563SOL    HW2 1705   0.520   2.624   0.324
  564SOL     OW 1706   1.281   2.207   0.944
  564SOL    HW1 1707   1.195   2.157   0.931
  564SOL    HW2 1708   1.343   2.153   1.000
  565SOL     OW 1709   1.576   3.524   0.307
  565SOL    HW1 1710   1.665   3.570   0.310
  565SOL    HW2 1711   1.555   3.500   0.212
  566SOL     OW 1712   0.807   2.467   1.465
  566SOL    HW1 1713   0.760   2.464   1.554
  566SOL    HW2 1714   0.756   2.412   1.399
  567SOL     OW 1715   1.394   2.331   1.674
  567SOL    HW1 1716   1.374   2.374   1.762
  567SOL    HW2 1717   1.472   2.269   1.683
  568SOL     OW 1718   0.973   2.752   1.572
  568SOL    HW1 1719   1.019   2.668   1.543
  568SOL    HW2 1720   0.917   2.786   1.497
  569SOL     OW 1721   0.991   2.272   1.242
  569SOL    HW1 1722   0.914   2.306   1.296
  569SOL    HW2 1723   0.957   2.221   1.163
  570SOL     OW 1724   1.041   2.563   0.429
  570SOL    HW1 1725   1.067   2.559   0.525
  570SOL    HW2 1726   0.956   2.512   0.415
  571SOL     OW 1727   0.076   2.673   0.789
  571SOL    HW1 1728   0.175   2.661   0.798
  571SOL    HW2 1729   0.052   2.768   0.810
  572SOL     OW 1730   0.130   3.683   1.571
  572SOL    HW1 1731   0.120   3.668   1.670
  572SOL    HW2 1732   0.044   3.719   1.535
  573SOL     OW 1733   0.865   2.210   0.195
  573SOL    HW1 1734   0.924   2.273   0.146
  573SOL    HW2 1735   0.884   2.116   0.166
  574SOL     OW 1736   1.719   2.447   1.831
  574SOL    HW1 1737   1.693   2.536   1.795
  574SOL    HW2 1738   1.717   2.379   1.758
  575SOL     OW 1739   1.362   3.006   0.545
  575SOL    HW1 1740   1.445   2.977   0.497
  575SOL    HW2 1741   1.313   3.073   0.489
  576SOL     OW 1742   0.550   2.058   0.885
  576SOL    HW1 1743   0.545   2.053   0.985
  576SOL    HW2 1744   0.552   2.154   0.856
  577SOL     OW 1745   1.008   3.318   0.477
  577SOL    HW1 1746   0.962   3.390   0.425
  577SOL    HW2 1747   1.004   3.338   0.575
  578SOL     OW 1748   0.351   3.663   0.853
  578SOL    HW1 1749   0.401   3.577   0.859
  578SOL    HW2 1750   0.416   3.740   0.850
  579SOL     OW 1751   1.795   2.928   0.873
  579SOL    HW1 1752   1.733   2.913   0.797
  579SOL    HW2 1753   1.743   2.939   0.958
  580SOL     OW 1754   1.227   3.412   1.506
  580SOL    HW1 1755   1.233   3.335   1.570
  580SOL    HW2 1756   1.175   3.386   1.426
  581SOL     OW 1757   0.321   2.805   0.242
  581SOL    HW1 1758   0.403   2.844   0.200
  581SOL    HW2 1759   0.294   2.723   0.193
  582SOL     OW 1760   1.458   2.597   0.728
  582SOL    HW1 1761   1.453   2.532   0.803
  582SOL    HW2 1762   1.538   2.656   0.741
  583SOL     OW 1763   0.461   3.128   1.727
  583SOL    HW1 1764   0.411   3.129   1.641
  583SOL    HW2 1765   0.398   3.110   1.803
  584SOL     OW 1766   1.111   3.638   0.237
  584SOL    HW1 1767   1.051   3.576   0.287
  584SOL    HW2 1768   1.142   3.594   0.152
  585SOL     OW 1769   0.202   2.147   1.498
  585SOL    HW1 1770   0.122   2.207   1.485
  585SOL    HW2 1771   0.192   2.098   1.584
  586SOL     OW 1772   1.632   3.239   0.081
  586SOL    HW1 1773   1.600   3.333   0.071
  586SOL    HW2 1774   1.556   3.176   0.069
  587SOL     OW 1775   0.464   3.605   0.323
  587SOL    HW1 1776   0.497   3.644   0.409
  587SOL    HW2 1777   0.540   3.598   0.258
  588SOL     OW 1778   1.400   1.969   0.426
  588SOL    HW1 1779   1.376   1.932   0.336
  588SOL    HW2 1780   1.499   1.985   0.430
  589SOL     OW 1781   0.249   3.647   1.241
  589SOL    HW1 1782   0.306   3.582   1.291
  589SOL    HW2 1783   0.233   3.614   1.148
  590SOL     OW 1784   0.940   3.560   0.904
  590SOL    HW1 1785   1.020   3.503   0.925
  590SOL    HW2 1786   0.891   3.520   0.827
  591SOL     OW 1787   0.382   2.562   0.480
  591SOL    HW1 1788   0.427   2.472   0.477
  591SOL    HW2 1789   0.288   2.551   0.513
  592SOL     OW 1790   1.547   2.084   1.729
  592SOL    HW1 1791   1.542   2.121   1.821
  592SOL    HW2 1792   1.475   2.015   1.717
  593SOL     OW 1793   0.781   2.126   1.749
  593SOL    HW1 1794   0.848   2.065   1.792
  593SOL    HW2 1795   0.708   2.145   1.814
  594SOL     OW 1796   0.888   3.376   1.195
  594SOL    HW1 1797   0.865   3.351   1.101
  594SOL    HW2 1798   0.949   3.307   1.234
  595SOL     OW 1799   1.351   2.452   1.433
  595SOL    HW1 1800   1.379   2.409   1.518
  595SOL    HW2 1801   1.376   2.548   1.434
  596SOL     OW 1802   0.803   3.264   0.924
  596SOL    HW1 1803   0.893   3.278   0.882
  596SOL    HW2 1804   0.732   3.266   0.853
  597SOL     OW 1805   0.922   2.365   0.899
  597SOL    HW1 1806   0.897   2.356   0.803
  597SOL    HW2 1807   0.970   2.283   0.930
  598SOL     OW 1808   0.539   1.926   0.512
  598SOL    HW1 1809   0.458   1.927   0.570
  598SOL    HW2 1810   0.542   2.009   0.457
  599SOL     OW 1811   1.434   3.050   0.041
  599SOL    HW1 1812   1.466   2.974   0.098
  599SOL    HW2 1813   1.342   3.077   0.071
  600SOL     OW 1814   0.297   1.897   0.171
  600SOL    HW1 1815   0.346   1.981   0.150
  600SOL    HW2 1816   0.359   1.832   0.216
  601SOL     OW 1817   0.935   2.098   0.480
  601SOL    HW1 1818   0.887   2.139   0.402
  601SOL    HW2 1819   1.034   2.096   0.461
  602SOL     OW 1820   1.076   2.545   1.464
  602SOL    HW1 1821   0.996   2.484   1.467
  602SOL    HW2 1822   1.157   2.492   1.440
  603SOL     OW 1823   1.227   3.432   0.793
  603SOL    HW1 1824   1.248   3.506   0.728
  603SOL    HW2 1825   1.295   3.432   0.866
  604SOL     OW 1826   0.459   3.014   0.741
  604SOL    HW1 1827   0.388   2.987   0.806
  604SOL    HW2 1828   0.433   2.986   0.648
  605SOL     OW 1829   1.271   3.659   0.591
  605SOL    HW1 1830   1.315   3.723   0.527
  605SOL    HW2 1831   1.221   3.711   0.661
  606SOL     OW 1832   1.032   2.411   0.016
  606SOL    HW1 1833   0.991   2.493  -0.023
  606SOL    HW2 1834   1.096   2.437   0.089
  607SOL     OW 1835   0.078   2.418   1.386
  607SOL    HW1 1836   0.170   2.417   1.345
  607SOL    HW2 1837   0.072   2.492   1.453
  608SOL     OW 1838   0.561   2.084   1.147
  608SOL    HW1 1839   0.599   2.000   1.184
  608SOL    HW2 1840   0.473   2.103   1.191
  609SOL     OW 1841   0.866   2.316   0.642
  609SOL    HW1 1842   0.834   2.388   0.580
  609SOL    HW2 1843   0.890   2.235   0.589
  610SOL     OW 1844   1.017   1.901   0.753
  610SOL    HW1 1845   0.945   1.906   0.684
  610SOL    HW2 1846   0.993   1.832   0.822
  611SOL     OW 1847   1.429   3.035   0.867
  611SOL    HW1 1848   1.374   2.951   0.860
  611SOL    HW2 1849   1.455   3.064   0.775
  612SOL     OW 1850   1.466   2.452   0.992
  612SOL    HW1 1851   1.436   2.357   0.999
  612SOL    HW2 1852   1.539   2.468   1.058
  613SOL     OW 1853   1.857   2.695   0.377
  613SOL    HW1 1854   1.899   2.631   0.441
  613SOL    HW2 1855   1.819   2.644   0.299
  614SOL     OW 1856   0.488   3.247   0.174
  614SOL    HW1 1857   0.401   3.232   0.221
  614SOL    HW2 1858   0.471   3.273   0.079
  615SOL     OW 1859   1.664   3.142   0.657
  615SOL    HW1 1860   1.763   3.150   0.671
  615SOL    HW2 1861   1.619   3.226   0.688
  616SOL     OW 1862   1.390   2.437   0.078
  616SOL    HW1 1863   1.336   2.416   0.159
  616SOL    HW2 1864   1.481   2.396   0.087
  617SOL     OW 1865   0.527   2.118   0.328
  617SOL    HW1 1866   0.554   2.059   0.253
  617SOL    HW2 1867   0.527   2.213   0.297
  618SOL     OW 1868   1.754   3.085   1.588
  618SOL    HW1 1869   1.845   3.046   1.575
  618SOL    HW2 1870   1.762   3.181   1.612
  619SOL     OW 1871   1.064   3.209   1.340
  619SOL    HW1 1872   0.984   3.186   1.395
  619SOL    HW2 1873   1.147   3.183   1.389
  620SOL     OW 1874   1.592   3.491   1.625
  620SOL    HW1 1875   1.619   3.525   1.535
  620SOL    HW2 1876   1.671   3.453   1.671
  621SOL     OW 1877   1.111   3.057   1.100
  621SOL    HW1 1878   1.071   3.101   1.181
  621SOL    HW2 1879   1.070   3.094   1.017
  622SOL     OW 1880   1.638   2.961   1.079
  622SOL    HW1 1881   1.643   3.042   1.138
  622SOL    HW2 1882   1.552   2.963   1.028
  623SOL     OW 1883   0.915   1.951   1.402
  623SOL    HW1 1884   0.940   1.931   1.307
  623SOL    HW2 1885   0.987   2.007   1.444
  624SOL     OW 1886   0.980   2.978   1.719
  624SOL    HW1 1887   0.881   2.984   1.729
  624SOL    HW2 1888   1.003   2.898   1.663
  625SOL     OW 1889   0.705   2.912   0.368
  625SOL    HW1 1890   0.691   2.919   0.467
  625SOL    HW2 1891   0.789   2.861   0.350
  626SOL     OW 1892   0.410   2.675   1.251
  626SOL    HW1 1893   0.496   2.687   1.301
  626SOL    HW2 1894   0.368   2.588   1.278
  627SOL     OW 1895   1.274   2.248   1.262
  627SOL    HW1 1896   1.295   2.322   1.326
  627SOL    HW2 1897   1.185   2.265   1.219
  628SOL     OW 1898   0.064   3.426   1.331
  628SOL    HW1 1899   0.018   3.508   1.297
  628SOL    HW2 1900   0.162   3.445   1.340
  629SOL     OW 1901   0.367   2.962   0.501
  629SOL    HW1 1902   0.360   3.045   0.445
  629SOL    HW2 1903   0.371   2.882   0.441
  630SOL     OW 1904   0.566   2.399   0.865
  630SOL    HW1 1905   0.578   2.465   0.791
  630SOL    HW2 1906   0.612   2.433   0.948
  631SOL     OW 1907   1.252   3.210   0.388
  631SOL    HW1 1908   1.302   3.287   0.428
  631SOL    HW2 1909   1.157   3.212   0.420
  632SOL     OW 1910   1.272   3.307   1.142
  632SOL    HW1 1911   1.319   3.320   1.229
  632SOL    HW2 1912   1.206   3.233   1.151
  633SOL     OW 1913   1.582   2.501   0.472
  633SOL    HW1 1914   1.551   2.562   0.545
  633SOL    HW2 1915   1.632   2.553   0.403
  634SOL     OW 1916   0.354   3.372   1.329
  634SOL    HW1 1917   0.333   3.328   1.242
  634SOL    HW2 1918   0.451   3.398   1.332
  635SOL     OW 1919   0.402   2.613   1.598
  635SOL    HW1 1920   0.470   2.668   1.551
  635SOL    HW2 1921   0.442   2.525   1.625
  636SOL     OW 1922   1.587   2.641   1.670
  636SOL    HW1 1923   1.495   2.679   1.665
  636SOL    HW2 1924   1.647   2.688   1.605
  637SOL     OW 1925   1.013   1.967   1.770
  637SOL    HW1 1926   1.019   2.052   1.718
  637SOL    HW2 1927   1.045   1.891   1.713
  638SOL     OW 1928   0.504   1.912   1.740
  638SOL    HW1 1929   0.462   1.855   1.670
  638SOL    HW2 1930   0.438   1.981   1.772
  639SOL     OW 1931   0.573   2.732   1.029
  639SOL    HW1 1932   0.617   2.821   1.020
  639SOL    HW2 1933   0.510   2.732   1.106
  640SOL     OW 1934   1.360   2.724   1.045
  640SOL    HW1 1935   1.285   2.724   0.979
  640SOL    HW2 1936   1.397   2.632   1.054
  641SOL     OW 1937   1.209   2.387   0.275
  641SOL    HW1 1938   1.222   2.303   0.329
  641SOL    HW2 1939   1.180   2.461   0.335
  642SOL     OW 1940   0.307   2.075   1.231
  642SOL    HW1 1941   0.284   2.112   1.321
  642SOL    HW2 1942   0.277   1.980   1.225
  643SOL     OW 1943   0.037   3.172   1.282
  643SOL    HW1 1944   0.090   3.123   1.350
  643SOL    HW2 1945   0.059   3.270   1.287
  644SOL     OW 1946   0.732   2.496   1.064
  644SOL    HW1 1947   0.791   2.470   0.988
  644SOL    HW2 1948   0.704   2.592   1.053
  645SOL     OW 1949   1.728   2.797   1.854
  645SOL    HW1 1950   1.682   2.790   1.765
  645SOL    HW2 1951   1.666   2.841   1.920
  646SOL     OW 1952   0.307   1.925   0.618
  646SOL    HW1 1953   0.296   2.019   0.651
  646SOL    HW2 1954   0.302   1.862   0.695
  647SOL     OW 1955   1.622   2.229   0.374
  647SOL    HW1 1956   1.624   2.153   0.438
  647SOL    HW2 1957   1.574   2.306   0.414
  648SOL     OW 1958   1.023   2.628   0.966
  648SOL    HW1 1959   1.038   2.649   1.062
  648SOL    HW2 1960   0.993   2.533   0.957
  649SOL     OW 1961   0.980   3.435   1.700
  649SOL    HW1 1962   0.960   3.479   1.612
  649SOL    HW2 1963   1.019   3.344   1.684
  650SOL     OW 1964   1.859   3.380   1.605
  650SOL    HW1 1965   1.873   3.407   1.510
  650SOL    HW2 1966   1.942   3.402   1.658
  651SOL     OW 1967   0.350   2.760   1.804
  651SOL    HW1 1968   0.426   2.804   1.852
  651SOL    HW2 1969   0.385   2.713   1.722
  652SOL     OW 1970   1.540   2.136   0.125
  652SOL    HW1 1971   1.479   2.061   0.148
  652SOL    HW2 1972   1.562   2.188   0.208
  653SOL     OW 1973   1.303   2.700   0.042
  653SOL    HW1 1974   1.337   2.607   0.057
  653SOL    HW2 1975   1.321   2.727  -0.053
  654SOL     OW 1976   1.068   3.195   0.849
  654SOL    HW1 1977   1.075   3.111   0.794
  654SOL    HW2 1978   1.130   3.264   0.813
  655SOL     OW 1979   0.319   2.672   0.949
  655SOL    HW1 1980   0.412   2.708   0.954
  655SOL    HW2 1981   0.313   2.587   1.001
  656SOL     OW 1982   0.339   2.371   1.006
  656SOL    HW1 1983   0.287   2.288   0.989
  656SOL    HW2 1984   0.416   2.376   0.942
  657SOL     OW 1985   1.138   2.242   1.678
  657SOL    HW1 1986   1.093   2.305   1.742
  657SOL    HW2 1987   1.231   2.273   1.661
  658SOL     OW 1988   1.160   2.069   1.477
  658SOL    HW1 1989   1.160   2.133   1.554
  658SOL    HW2 1990   1.188   2.117   1.394
  659SOL     OW 1991   0.008   3.188   0.200
  659SOL    HW1 1992  -0.085   3.209   0.169
  659SOL    HW2 1993   0.018   3.089   0.213
  660SOL     OW 1994   0.088   3.663   0.927
  660SOL    HW1 1995   0.046   3.577   0.900
  660SOL    HW2 1996   0.182   3.666   0.893
  661SOL     OW 1997   0.504   3.430   0.910
  661SOL    HW1 1998   0.570   3.504   0.919
  661SOL    HW2 1999   0.548   3.351   0.868
  662SOL     OW 2000   1.002   2.658   1.238
  662SOL    HW1 2001   1.043   2.626   1.324
  662SOL    HW2 2002   0.906   2.631   1.235
  663SOL     OW 2003   0.040   2.406   1.114
  663SOL    HW1 2004   0.125   2.373   1.073
  663SOL    HW2 2005   0.053   2.421   1.212
  664SOL     OW 2006   0.189   2.382   1.722
  664SOL    HW1 2007   0.248   2.342   1.652
  664SOL    HW2 2008   0.131   2.453   1.681
  665SOL     OW 2009   1.369   2.812   1.660
  665SOL    HW1 2010   1.408   2.901   1.680
  665SOL    HW2 2011   1.379   2.792   1.563
  666SOL     OW 2012   0.815   2.434   0.325
  666SOL    HW1 2013   0.822   2.345   0.279
  666SOL    HW2 2014   0.721   2.468   0.317
  667SOL     OW 2015   1.657   2.466   1.206
  667SOL    HW1 2016   1.619   2.397   1.268
  667SOL    HW2 2017   1.739   2.430   1.162
  668SOL     OW 2018   0.252   3.426   1.744
  668SOL    HW1 2019   0.222   3.483   1.820
  668SOL    HW2 2020   0.245   3.329   1.770
  669SOL     OW 2021   0.671   2.326   1.269
  669SOL    HW1 2022   0.637   2.237   1.239
  669SOL    HW2 2023   0.697   2.380   1.189
  670SOL     OW 2024   0.930   3.540   1.465
  670SOL    HW1 2025   0.906   3.522   1.370
  670SOL    HW2 2026   0.960   3.634   1.475
  671SOL     OW 2027   0.473   2.362   0.191
  671SOL    HW1 2028   0.534   2.442   0.195
  671SOL    HW2 2029   0.378   2.393   0.198
  672SOL     OW 2030   0.159   2.999   1.466
  672SOL    HW1 2031   0.181   2.938   1.542
  672SOL    HW2 2032   0.169   2.950   1.380
  673SOL     OW 2033   1.347   2.921   1.234
  673SOL    HW1 2034   1.371   2.858   1.160
  673SOL    HW2 2035   1.257   2.961   1.216
  674SOL     OW 2036   1.302   2.717   0.309
  674SOL    HW1 2037   1.216   2.686   0.351
  674SOL    HW2 2038   1.298   2.703   0.210
  675SOL     OW 2039   1.759   3.609   1.154
  675SOL    HW1 2040   1.820   3.639   1.081
  675SOL    HW2 2041   1.721   3.520   1.132
  676SOL     OW 2042   1.252   3.593   1.128
  676SOL    HW1 2043   1.336   3.598   1.074
  676SOL    HW2 2044   1.229   3.497   1.146
  677SOL     OW 2045   0.083   3.120   1.022
  677SOL    HW1 2046   0.078   3.119   1.122
  677SOL    HW2 2047   0.000   3.079   0.984
  678SOL     OW 2048   0.688   3.524   1.716
  678SOL    HW1 2049   0.632   3.605   1.725
  678SOL    HW2 2050   0.740   3.528   1.630
  679SOL     OW 2051   0.903   1.948   0.133
  679SOL    HW1 2052   0.954   1.949   0.047
  679SOL    HW2 2053   0.959   1.906   0.204
  680SOL     OW 2054   1.726   1.997   0.523
  680SOL    HW1 2055   1.799   1.980   0.456
  680SOL    HW2 2056   1.695   1.910   0.561
  681SOL     OW 2057   1.388   3.435   0.477
  681SOL    HW1 2058   1.455   3.447   0.403
  681SOL    HW2 2059   1.348   3.524   0.500
  682SOL     OW 2060   0.130   3.656   1.851
  682SOL    HW1 2061   0.089   3.582   1.904
  682SOL    HW2 2062   0.194   3.707   1.909
  683SOL     OW 2063   1.280   2.789   0.672
  683SOL    HW1 2064   1.340   2.708   0.674
  683SOL    HW2 2065   1.320   2.858   0.612
  684SOL     OW 2066   0.830   3.135   1.422
  684SOL    HW1 2067   0.825   3.168   1.517
  684SOL    HW2 2068   0.744   3.154   1.376
  685SOL     OW 2069   0.672   3.478   0.154
  685SOL    HW1 2070   0.681   3.488   0.055
  685SOL    HW2 2071   0.632   3.389   0.175
  686SOL     OW 2072   1.650   3.582   1.394
  686SOL    HW1 2073   1.703   3.592   1.310
  686SOL    HW2 2074   1.623   3.672   1.428
  687SOL     OW 2075   1.841   2.037   0.963
  687SOL    HW1 2076   1.880   1.952   0.927
  687SOL    HW2 2077   1.743   2.039   0.944
  688SOL     OW 2078   0.263   2.188   0.720
  688SOL    HW1 2079   0.184   2.239   0.686
  688SOL    HW2 2080   0.254   2.173   0.818
  689SOL     OW 2081   1.194   3.474   0.031
  689SOL    HW1 2082   1.200   3.381   0.068
  689SOL    HW2 2083   1.135   3.474  -0.049
  690SOL     OW 2084   0.822   2.864   1.372
  690SOL    HW1 2085   0.862   2.863   1.280
  690SOL    HW2 2086   0.832   2.956   1.412
  691SOL     OW 2087   0.916   2.772   0.291
  691SOL    HW1 2088   0.979   2.810   0.223
  691SOL    HW2 2089   0.956   2.689   0.330
  692SOL     OW 2090   1.504   3.469   0.044
  692SOL    HW1 2091   1.412   3.506   0.051
  692SOL    HW2 2092   1.542   3.489  -0.046
  693SOL     OW 2093   0.372   3.150   1.490
  693SOL    HW1 2094   0.359   3.243   1.456
  693SOL    HW2 2095   0.288   3.098   1.477
  694SOL     OW 2096   1.614   3.154   1.289
  694SOL    HW1 2097   1.674   3.157   1.369
  694SOL    HW2 2098   1.539   3.218   1.302
  695SOL     OW 2099   1.039   2.960   0.696
  695SOL    HW1 2100   0.969   2.913   0.750
  695SOL    HW2 2101   1.098   2.892   0.653
  696SOL     OW 2102   1.014   2.098   0.971
  696SOL    HW1 2103   1.006   2.062   0.878
  696SOL    HW2 2104   1.012   2.022   1.036
  697SOL     OW 2105   0.590   3.349   0.491
  697SOL    HW1 2106   0.632   3.291   0.421
  697SOL    HW2 2107   0.546   3.428   0.447
  698SOL     OW 2108   1.709   2.247   1.381
  698SOL    HW1 2109   1.782   2.316   1.385
  698SOL    HW2 2110   1.737   2.172   1.322
  699SOL     OW 2111   0.255   3.210   0.290
  699SOL    HW1 2112   0.159   3.211   0.263
  699SOL    HW2 2113   0.267   3.263   0.374
  700SOL     OW 2114   0.105   2.875   1.726
  700SOL    HW1 2115   0.028   2.842   1.780
  700SOL    HW2 2116   0.190   2.845   1.768
  701SOL     OW 2117   0.672   2.065   1.489
  701SOL    HW1 2118   0.762   2.049   1.449
  701SOL    HW2 2119   0.680   2.070   1.588
  702SOL     OW 2120   0.075   2.207   0.033
  702SOL    HW1 2121  -0.017   2.179   0.004
  702SOL    HW2 2122   0.106   2.284  -0.023
  703SOL     OW 2123   1.440   2.718   1.398
  703SOL    HW1 2124   1.383   2.770   1.335
  703SOL    HW2 2125   1.536   2.730   1.374
  704SOL     OW 2126   0.072   2.028   0.318
  704SOL    HW1 2127   0.055   2.111   0.264
  704SOL    HW2 2128   0.162   1.991   0.296
  705SOL     OW 2129   1.183   3.197   0.119
  705SOL    HW1 2130   1.084   3.186   0.121
  705SOL    HW2 2131   1.217   3.212   0.212
  706SOL     OW 2132   0.613   2.704   1.431
  706SOL    HW1 2133   0.669   2.785   1.414
  706SOL    HW2 2134   0.672   2.624   1.434
  707SOL     OW 2135   1.493   3.629   0.959
  707SOL    HW1 2136   1.526   3.693   0.890
  707SOL    HW2 2137   1.559   3.623   1.034
  708SOL     OW 2138   0.716   2.427   1.708
  708SOL    HW1 2139   0.735   2.492   1.782
  708SOL    HW2 2140   0.776   2.347   1.717
  709SOL     OW 2141   1.450   3.082   1.633
  709SOL    HW1 2142   1.441   3.072   1.732
  709SOL    HW2 2143   1.546   3.075   1.607
  710SOL     OW 2144   0.390   3.603   1.560
  710SOL    HW1 2145   0.299   3.644   1.558
  710SOL    HW2 2146   0.383   3.509   1.592
  711SOL     OW 2147   1.674   2.745   1.254
  711SOL    HW1 2148   1.647   2.656   1.217
  711SOL    HW2 2149   1.675   2.813   1.181
  712SOL     OW 2150   1.225   2.187   0.449
  712SOL    HW1 2151   1.290   2.113   0.438
  712SOL    HW2 2152   1.245   2.237   0.533
  713SOL     OW 2153   0.594   2.607   0.652
  713SOL    HW1 2154   0.644   2.692   0.633
  713SOL    HW2 2155   0.506   2.609   0.604
  714SOL     OW 2156   1.777   2.204   1.642
  714SOL    HW1 2157   1.760   2.235   1.548
  714SOL    HW2 2158   1.693   2.167   1.680
  715SOL     OW 2159   1.730   2.796   1.517
  715SOL    HW1 2160   1.768   2.887   1.532
  715SOL    HW2 2161   1.722   2.779   1.418
  716SOL     OW 2162   0.859   3.236   0.016
  716SOL    HW1 2163   0.813   3.251   0.104
  716SOL    HW2 2164   0.903   3.321  -0.014
  717SOL     OW 2165   0.661   3.652   0.953
  717SOL    HW1 2166   0.615   3.740   0.940
  717SOL    HW2 2167   0.760   3.664   0.946
  718SOL     OW 2168   0.859   2.818   0.861
  718SOL    HW1 2169   0.913   2.749   0.909
  718SOL    HW2 2170   0.827   2.887   0.927
  719SOL     OW 2171   1.083   2.846   0.087
  719SOL    HW1 2172   1.060   2.899   0.005
  719SOL    HW2 2173   1.164   2.790   0.068
  720SOL     OW 2174   1.861   3.431   0.851
  720SOL    HW1 2175   1.790   3.419   0.781
  720SOL    HW2 2176   1.862   3.352   0.911
  721SOL     OW 2177   0.221   3.176   1.844
  721SOL    HW1 2178   0.156   3.103   1.823
  721SOL    HW2 2179   0.225   3.190   1.942
  722SOL     OW 2180   0.079   3.102   0.653
  722SOL    HW1 2181   0.078   3.055   0.741
  722SOL    HW2 2182   0.161   3.074   0.602
  723SOL     OW 2183   0.672   3.253   1.624
  723SOL    HW1 2184   0.594   3.203   1.662
  723SOL    HW2 2185   0.669   3.348   1.655
  724SOL     OW 2186   1.824   2.054   1.227
  724SOL    HW1 2187   1.820   1.964   1.271
  724SOL    HW2 2188   1.827   2.043   1.128
  725SOL     OW 2189   0.428   2.286   0.520
  725SOL    HW1 2190   0.458   2.214   0.458
  725SOL    HW2 2191   0.389   2.246   0.603
  726SOL     OW 2192   1.705   3.349   1.104
  726SOL    HW1 2193   1.612   3.324   1.077
  726SOL    HW2 2194   1.731   3.299   1.186
  727SOL     OW 2195   0.317   2.409   1.280
  727SOL    HW1 2196   0.355   2.350   1.352
  727SOL    HW2 2197   0.357   2.383   1.192
  728SOL     OW 2198   0.812   3.448   0.687
  728SOL    HW1 2199   0.844   3.458   0.593
  728SOL    HW2 2200   0.733   3.386   0.689
  729SOL     OW 2201   1.424   2.076   1.112
  729SOL    HW1 2202   1.476   2.011   1.167
  729SOL    HW2 2203   1.375   2.139   1.173
  730SOL     OW 2204   1.001   1.896   1.154
  730SOL    HW1 2205   0.938   1.824   1.123
  730SOL    HW2 2206   1.094   1.860   1.154
  731SOL     OW 2207   0.770   3.192   0.301
  731SOL    HW1 2208   0.724   3.105   0.318
  731SOL    HW2 2209   0.861   3.189   0.342
  732SOL     OW 2210   0.618   3.429   1.284
  732SOL    HW1 2211   0.613   3.511   1.341
  732SOL    HW2 2212   0.707   3.426   1.239
  733SOL     OW 2213   1.352   1.914   0.168
  733SOL    HW1 2214   1.387   1.873   0.084
  733SOL    HW2 2215   1.262   1.876   0.188
  734SOL     OW 2216   1.300   2.315   0.691
  734SOL    HW1 2217   1.241   2.395   0.695
  734SOL    HW2 2218   1.315   2.280   0.784
  735SOL     OW 2219   1.593   2.083   0.882
  735SOL    HW1 2220   1.509   2.082   0.936
  735SOL    HW2 2221   1.595   2.166   0.826
  736SOL     OW 2222   0.039   2.939   0.300
  736SOL    HW1 2223   0.138   2.928   0.291
  736SOL    HW2 2224  -0.001   2.853   0.332
  737SOL     OW 2225   0.875   3.508   0.337
  737SOL    HW1 2226   0.798   3.473   0.283
  737SOL    HW2 2227   0.843   3.579   0.399
  738SOL     OW 2228   0.230   2.490   1.975
  738SOL    HW1 2229   0.137   2.488   2.012
  738SOL    HW2 2230   0.231   2.451   1.883
  739SOL     OW 2231   0.225   2.137   2.858
  739SOL    HW1 2232   0.260   2.120   2.950
  739SOL    HW2 2233   0.137   2.092   2.846
  740SOL     OW 2234   0.019   2.230   2.509
  740SOL    HW1 2235  -0.063   2.273   2.548
  740SOL    HW2 2236  -0.009   2.157   2.446
  741SOL     OW 2237   0.569   3.137   3.027
  741SOL    HW1 2238   0.476   3.130   2.990
  741SOL    HW2 2239   0.580   3.226   3.071
  742SOL     OW 2240   1.555   3.373   2.565
  742SOL    HW1 2241   1.498   3.357   2.646
  742SOL    HW2 2242   1.496   3.383   2.485
  743SOL     OW 2243   1.135   2.565   2.579
  743SOL    HW1 2244   1.192   2.643   2.554
  743SOL    HW2 2245   1.075   2.591   2.655
  744SOL     OW 2246   1.755   2.469   2.093
  744SOL    HW1 2247   1.743   2.456   1.994
  744SOL    HW2 2248   1.725   2.388   2.142
  745SOL     OW 2249   0.768   3.006   2.885
  745SOL    HW1 2250   0.690   3.023   2.945
  745SOL    HW2 2251   0.802   3.093   2.849
  746SOL     OW 2252   0.850   2.660   3.685
  746SOL    HW1 2253   0.846   2.736   3.750
  746SOL    HW2 2254   0.872   2.696   3.594
  747SOL     OW 2255   0.685   2.874   2.527
  747SOL    HW1 2256   0.754   2.858   2.597
  747SOL    HW2 2257   0.612   2.931   2.565
  748SOL     OW 2258   0.686   3.023   3.665
  748SOL    HW1 2259   0.746   3.102   3.679
  748SOL    HW2 2260   0.600   3.054   3.624
  749SOL     OW 2261   0.335   3.297   2.923
  749SOL    HW1 2262   0.257   3.266   2.870
  749SOL    HW2 2263   0.393   3.355   2.866
  750SOL     OW 2264   1.460   3.367   3.201
  750SOL    HW1 2265   1.484   3.461   3.227
  750SOL    HW2 2266   1.444   3.313   3.283
  751SOL     OW 2267   0.438   2.254   3.361
  751SOL    HW1 2268   0.520   2.198   3.370
  751SOL    HW2 2269   0.357   2.196   3.365
  752SOL     OW 2270   1.603   2.309   2.599
  752SOL    HW1 2271   1.529   2.355   2.549
  752SOL    HW2 2272   1.654   2.377   2.652
  753SOL     OW 2273   0.231   3.575   2.345
  753SOL    HW1 2274   0.265   3.652   2.399
  753SOL    HW2 2275   0.275   3.575   2.255
  754SOL     OW 2276   1.127   3.203   3.552
  754SOL    HW1 2277   1.174   3.203   3.640
  754SOL    HW2 2278   1.079   3.116   3.541
  755SOL     OW 2279   0.230   3.296   2.400
  755SOL    HW1 2280   0.204   3.392   2.400
  755SOL    HW2 2281   0.159   3.242   2.445
  756SOL     OW 2282   0.240   2.953   2.748
  756SOL    HW1 2283   0.254   2.869   2.800
  756SOL    HW2 2284   0.185   3.017   2.803
  757SOL     OW 2285   0.620   3.648   3.301
  757SOL    HW1 2286   0.528   3.631   3.336
  757SOL    HW2 2287   0.648   3.740   3.327
  758SOL     OW 2288   0.606   2.826   1.985
  758SOL    HW1 2289   0.613   2.910   1.931
  758SOL    HW2 2290   0.652   2.839   2.073
  759SOL     OW 2291   1.594   1.976   3.342
  759SOL    HW1 2292   1.576   2.043   3.270
  759SOL    HW2 2293   1.591   2.022   3.431
  760SOL     OW 2294   0.122   2.505   2.425
  760SOL    HW1 2295   0.077   2.417   2.442
  760SOL    HW2 2296   0.121   2.559   2.509
  761SOL     OW 2297   1.842   3.629   2.221
  761SOL    HW1 2298   1.896   3.600   2.301
  761SOL    HW2 2299   1.872   3.719   2.192
  762SOL     OW 2300   0.027   3.458   1.979
  762SOL    HW1 2301   0.008   3.362   2.000
  762SOL    HW2 2302  -0.006   3.516   2.054
  763SOL     OW 2303   1.689   2.784   2.474
  763SOL    HW1 2304   1.784   2.755   2.482
  763SOL    HW2 2305   1.681   2.849   2.399
  764SOL     OW 2306   1.641   2.970   2.294
  764SOL    HW1 2307   1.727   2.972   2.242
  764SOL    HW2 2308   1.655   3.017   2.382
  765SOL     OW 2309   0.113   2.599   3.459
  765SOL    HW1 2310   0.201   2.586   3.504
  765SOL    HW2 2311   0.100   2.696   3.437
  766SOL     OW 2312   0.613   3.227   2.588
  766SOL    HW1 2313   0.564   3.140   2.597
  766SOL    HW2 2314   0.590   3.270   2.501
  767SOL     OW 2315   1.293   3.090   3.285
  767SOL    HW1 2316   1.330   3.017   3.227
  767SOL    HW2 2317   1.345   3.095   3.370
  768SOL     OW 2318   0.809   1.866   2.364
  768SOL    HW1 2319   0.849   1.957   2.355
  768SOL    HW2 2320   0.709   1.874   2.370
  769SOL     OW 2321   0.197   2.838   3.126
  769SOL    HW1 2322   0.286   2.793   3.112
  769SOL    HW2 2323   0.124   2.773   3.107
  770SOL     OW 2324   1.525   2.861   2.052
  770SOL    HW1 2325   1.462   2.785   2.065
  770SOL    HW2 2326   1.573   2.879   2.138
  771SOL     OW 2327   1.187   3.654   3.478
  771SOL    HW1 2328   1.211   3.714   3.402
  771SOL    HW2 2329   1.194   3.559   3.448
  772SOL     OW 2330   0.317   2.113   3.663
  772SOL    HW1 2331   0.388   2.184   3.669
  772SOL    HW2 2332   0.229   2.152   3.691
  773SOL     OW 2333   1.466   3.279   2.815
  773SOL    HW1 2334   1.407   3.285   2.895
  773SOL    HW2 2335   1.451   3.191   2.769
  774SOL     OW 2336   1.667   3.576   2.434
  774SOL    HW1 2337   1.626   3.553   2.346
  774SOL    HW2 2338   1.649   3.502   2.499
  775SOL     OW 2339   0.598   2.591   2.132
  775SOL    HW1 2340   0.622   2.660   2.064
  775SOL    HW2 2341   0.520   2.624   2.186
  776SOL     OW 2342   1.281   2.207   2.806
  776SOL    HW1 2343   1.195   2.157   2.793
  776SOL    HW2 2344   1.343   2.153   2.862
  777SOL     OW 2345   1.576   3.524   2.169
  777SOL    HW1 2346   1.665   3.570   2.172
  777SOL    HW2 2347   1.555   3.500   2.074
  778SOL     OW 2348   0.807   2.467   3.327
  778SOL    HW1 2349   0.760   2.464   3.416
  778SOL    HW2 2350   0.756   2.412   3.261
  779SOL     OW 2351   1.394   2.331   3.536
  779SOL    HW1 2352   1.374   2.374   3.624
  779SOL    HW2 2353   1.472   2.269   3.545
  780SOL     OW 2354   0.973   2.752   3.434
  780SOL    HW1 2355   1.019   2.668   3.405
  780SOL    HW2 2356   0.917   2.786   3.359
  781SOL     OW 2357   0.991   2.272   3.104
  781SOL    HW1 2358   0.914   2.306   3.158
  781SOL    HW2 2359   0.957   2.221   3.025
  782SOL     OW 2360   1.041   2.563   2.291
  782SOL    HW1 2361   1.067   2.559   2.387
  782SOL    HW2 2362   0.956   2.512   2.277
  783SOL     OW 2363   0.076   2.673   2.651
  783SOL    HW1 2364   0.175   2.661   2.660
  783SOL    HW2 2365   0.052   2.768   2.672
  784SOL     OW 2366   0.130   3.683   3.433
  784SOL    HW1 2367   0.120   3.668   3.532
  784SOL    HW2 2368   0.044   3.719   3.397
  785SOL     OW 2369   0.865   2.210   2.057
  785SOL    HW1 2370   0.924   2.273   2.008
  785SOL    HW2 2371   0.884   2.116   2.028
  786SOL     OW 2372   1.719   2.447   3.693
  786SOL    HW1 2373   1.693   2.536   3.657
  786SOL    HW2 2374   1.717   2.379   3.620
  787SOL     OW 2375   1.362   3.006   2.407
  787SOL    HW1 2376   1.445   2.977   2.359
  787SOL    HW2 2377   1.313   3.073   2.351
  788SOL     OW 2378   0.550   2.058   2.747
  788SOL    HW1 2379   0.545   2.053   2.847
  788SOL    HW2 2380   0.552   2.154   2.718
  789SOL     OW 2381   1.008   3.318   2.339
  789SOL    HW1 2382   0.962   3.390   2.287
  789SOL    HW2 2383   1.004   3.338   2.437
  790SOL     OW 2384   0.351   3.663   2.715
  790SOL    HW1 2385   0.401   3.577   2.721
  790SOL    HW2 2386   0.416   3.740   2.712
  791SOL     OW 2387   1.795   2.928   2.735
  791SOL    HW1 2388   1.733   2.913   2.659
  791SOL    HW2 2389   1.743   2.939   2.820
  792SOL     OW 2390   1.227   3.412   3.368
  792SOL    HW1 2391   1.233   3.335   3.432
  792SOL    HW2 2392   1.175   3.386   3.288
  793SOL     OW 2393   0.321   2.805   2.104
  793SOL    HW1 2394   0.403   2.844   2.062
  793SOL    HW2 2395   0.294   2.723   2.055
  794SOL     OW 2396   1.458   2.597   2.590
  794SOL    HW1 2397   1.453   2.532   2.665
  794SOL    HW2 2398   1.538   2.656   2.603
  795SOL     OW 2399   0.461   3.128   3.589
  795SOL    HW1 2400   0.411   3.129   3.503
  795SOL    HW2 2401   0.398   3.110   3.665
  796SOL     OW 2402   1.111   3.638   2.099
  796SOL    HW1 2403   1.051   3.576   2.149
  796SOL    HW2 2404   1.142   3.594   2.014
  797SOL     OW 2405   0.202   2.147   3.360
  797SOL    HW1 2406   0.122   2.207   3.347
  797SOL    HW2 2407   0.192   2.098   3.446
  798SOL     OW 2408   1.632   3.239   1.943
  798SOL    HW1 2409   1.600   3.333   1.933
  798SOL    HW2 2410   1.556   3.176   1.931
  799SOL     OW 2411   0.464   3.605   2.185
  799SOL    HW1 2412   0.497   3.644   2.271
  799SOL    HW2 2413   0.540   3.598   2.120
  800SOL     OW 2414   1.400   1.969   2.288
  800SOL    HW1 2415   1.376   1.932   2.198
  800SOL    HW2 2416   1.499   1.985   2.292
  801SOL     OW 2417   0.249   3.647   3.103
  801SOL    HW1 2418   0.306   3.582   3.153
  801SOL    HW2 2419   0.233   3.614   3.010
  802SOL     OW 2420   0.940   3.560   2.766
  802SOL    HW1 2421   1.020   3.503   2.787
  802SOL    HW2 2422   0.891   3.520   2.689
  803SOL     OW 2423   0.382   2.562   2.342
  803SOL    HW1 2424   0.427   2.472   2.339
  803SOL    HW2 2425   0.288   2.551   2.375
  804SOL     OW 2426   1.547   2.084   3.591
  804SOL    HW1 2427   1.542   2.121   3.683
  804SOL    HW2 2428   1.475   2.015   3.579
  805SOL     OW 2429   0.614   1.984   1.979
  805SOL    HW1 2430   0.712   1.962   1.986
  805SOL    HW2 2431   0.583   1.967   1.886
  806SOL     OW 2432   0.781   2.126   3.611
  806SOL    HW1 2433   0.848   2.065   3.654
  806SOL    HW2 2434   0.708   2.145   3.676
  807SOL     OW 2435   0.888   3.376   3.057
  807SOL    HW1 2436   0.865   3.351   2.963
  807SOL    HW2 2437   0.949   3.307   3.096
  808SOL     OW 2438   1.351   2.452   3.295
  808SOL    HW1 2439   1.379   2.409   3.380
  808SOL    HW2 2440   1.376   2.548   3.296
  809SOL     OW 2441   0.803   3.264   2.786
  809SOL    HW1 2442   0.893   3.278   2.744
  809SOL    HW2 2443   0.732   3.266   2.715
  810SOL     OW 2444   0.922   2.365   2.761
  810SOL    HW1 2445   0.897   2.356   2.665
  810SOL    HW2 2446   0.970   2.283   2.792
  811SOL     OW 2447   0.539   1.926   2.374
  811SOL    HW1 2448   0.458   1.927   2.432
  811SOL    HW2 2449   0.542   2.009   2.319
  812SOL     OW 2450   1.434   3.050   1.903
  812SOL    HW1 2451   1.466   2.974   1.960
  812SOL    HW2 2452   1.342   3.077   1.933
  813SOL     OW 2453   0.297   1.897   2.033
  813SOL    HW1 2454   0.346   1.981   2.012
  813SOL    HW2 2455   0.359   1.832   2.078
  814SOL     OW 2456   0.935   2.098   2.342
  814SOL    HW1 2457   0.887   2.139   2.264
  814SOL    HW2 2458   1.034   2.096   2.323
  815SOL     OW 2459   1.076   2.545   3.326
  815SOL    HW1 2460   0.996   2.484   3.329
  815SOL    HW2 2461   1.157   2.492   3.302
  816SOL     OW 2462   1.227   3.432   2.655
  816SOL    HW1 2463   1.248   3.506   2.590
  816SOL    HW2 2464   1.295   3.432   2.728
  817SOL     OW 2465   0.459   3.014   2.603
  817SOL    HW1 2466   0.388   2.987   2.668
  817SOL    HW2 2467   0.433   2.986   2.510
  818SOL     OW 2468   1.271   3.659   2.453
  818SOL    HW1 2469   1.315   3.723   2.389
  818SOL    HW2 2470   1.221   3.711   2.523
  819SOL     OW 2471   1.032   2.411   1.878
  819SOL    HW1 2472   0.991   2.493   1.839
  819SOL    HW2 2473   1.096   2.437   1.951
  820SOL     OW 2474   0.078   2.418   3.248
  820SOL    HW1 2475   0.170   2.417   3.207
  820SOL    HW2 2476   0.072   2.492   3.315
  821SOL     OW 2477   0.561   2.084   3.009
  821SOL    HW1 2478   0.599   2.000   3.046
  821SOL    HW2 2479   0.473   2.103   3.053
  822SOL     OW 2480   0.866   2.316   2.504
  822SOL    HW1 2481   0.834   2.388   2.442
  822SOL    HW2 2482   0.890   2.235   2.451
  823SOL     OW 2483   1.017   1.901   2.615
  823SOL    HW1 2484   0.945   1.906   2.546
  823SOL    HW2 2485   0.993   1.832   2.684
  824SOL     OW 2486   1.429   3.035   2.729
  824SOL    HW1 2487   1.374   2.951   2.722
  824SOL    HW2 2488   1.455   3.064   2.637
  825SOL     OW 2489   1.466   2.452   2.854
  825SOL    HW1 2490   1.436   2.357   2.861
  825SOL    HW2 2491   1.539   2.468   2.920
  826SOL     OW 2492   1.857   2.695   2.239
  826SOL    HW1 2493   1.899   2.631   2.303
  826SOL    HW2 2494   1.819   2.644   2.161
  827SOL     OW 2495   0.488   3.247   2.036
  827SOL    HW1 2496   0.401   3.232   2.083
  827SOL    HW2 2497   0.471   3.273   1.941
  828SOL     OW 2498   1.664   3.142   2.519
  828SOL    HW1 2499   1.763   3.150   2.533
  828SOL    HW2 2500   1.619   3.226   2.550
  829SOL     OW 2501   1.390   2.437   1.940
  829SOL    HW1 2502   1.336   2.416   2.021
  829SOL    HW2 2503   1.481   2.396   1.949
  830SOL     OW 2504   0.527   2.118   2.190
  830SOL    HW1 2505   0.554   2.059   2.115
  830SOL    HW2 2506   0.527   2.213   2.159
  831SOL     OW 2507   1.754   3.085   3.450
  831SOL    HW1 2508   1.845   3.046   3.437
  831SOL    HW2 2509   1.762   3.181   3.474
  832SOL     OW 2510   1.064   3.209   3.202
  832SOL    HW1 2511   0.984   3.186   3.257
  832SOL    HW2 2512   1.147   3.183   3.251
  833SOL     OW 2513   1.592   3.491   3.487
  833SOL    HW1 2514   1.619   3.525   3.397
  833SOL    HW2 2515   1.671   3.453   3.533
  834SOL     OW 2516   1.111   3.057   2.962
  834SOL    HW1 2517   1.071   3.101   3.043
  834SOL    HW2 2518   1.070   3.094   2.879
  835SOL     OW 2519   1.638   2.961   2.941
  835SOL    HW1 2520   1.643   3.042   3.000
  835SOL    HW2 2521   1.552   2.963   2.890
  836SOL     OW 2522   0.915   1.951   3.264
  836SOL    HW1 2523   0.940   1.931   3.169
  836SOL    HW2 2524   0.987   2.007   3.306
  837SOL     OW 2525   0.980   2.978   3.581
  837SOL    HW1 2526   0.881   2.984   3.591
  837SOL    HW2 2527   1.003   2.898   3.525
  838SOL     OW 2528   0.705   2.912   2.230
  838SOL    HW1 2529   0.691   2.919   2.329
  838SOL    HW2 2530   0.789   2.861   2.212
  839SOL     OW 2531   0.410   2.675   3.113
  839SOL    HW1 2532   0.496   2.687   3.163
  839SOL    HW2 2533   0.368   2.588   3.140
  840SOL     OW 2534   1.274   2.248   3.124
  840SOL    HW1 2535   1.295   2.322   3.188
  840SOL    HW2 2536   1.185   2.265   3.081
  841SOL     OW 2537   0.064   3.426   3.193
  841SOL    HW1 2538   0.018   3.508   3.159
  841SOL    HW2 2539   0.162   3.445   3.202
  842SOL     OW 2540   0.367   2.962   2.363
  842SOL    HW1 2541   0.360   3.045   2.307
  842SOL    HW2 2542   0.371   2.882   2.303
  843SOL     OW 2543   0.566   2.399   2.727
  843SOL    HW1 2544   0.578   2.465   2.653
  843SOL    HW2 2545   0.612   2.433   2.810
  844SOL     OW 2546   1.252   3.210   2.250
  844SOL    HW1 2547   1.302   3.287   2.290
  844SOL    HW2 2548   1.157   3.212   2.282
  845SOL     OW 2549   1.272   3.307   3.004
  845SOL    HW1 2550   1.319   3.320   3.091
  845SOL    HW2 2551   1.206   3.233   3.013
  846SOL     OW 2552   1.582   2.501   2.334
  846SOL    HW1 2553   1.551   2.562   2.407
  846SOL    HW2 2554   1.632   2.553   2.265
  847SOL     OW 2555   0.354   3.372   3.191
  847SOL    HW1 2556   0.333   3.328   3.104
  847SOL    HW2 2557   0.451   3.398   3.194
  848SOL     OW 2558   0.402   2.613   3.460
  848SOL    HW1 2559   0.470   2.668   3.413
  848SOL    HW2 2560   0.442   2.525   3.487
  849SOL     OW 2561   1.587   2.641   3.532
  849SOL    HW1 2562   1.495   2.679   3.527
  849SOL    HW2 2563   1.647   2.688   3.467
  850SOL     OW 2564   1.013   1.967   3.632
  850SOL    HW1 2565   1.019   2.052   3.580
  850SOL    HW2 2566   1.045   1.891   3.575
  851SOL     OW 2567   0.504   1.912   3.602
  851SOL    HW1 2568   0.462   1.855   3.532
  851SOL    HW2 2569   0.438   1.981   3.634
  852SOL     OW 2570   0.573   2.732   2.891
  852SOL    HW1 2571   0.617   2.821   2.882
  852SOL    HW2 2572   0.510   2.732   2.968
  853SOL     OW 2573   1.360   2.724   2.907
  853SOL    HW1 2574   1.285   2.724   2.841
  853SOL    HW2 2575   1.397   2.632   2.916
  854SOL     OW 2576   1.209   2.387   2.137
  854SOL    HW1 2577   1.222   2.303   2.191
  854SOL    HW2 2578   1.180   2.461   2.197
  855SOL     OW 2579   0.307   2.075   3.093
  855SOL    HW1 2580   0.284   2.112   3.183
  855SOL    HW2 2581   0.277   1.980   3.087
  856SOL     OW 2582   0.037   3.172   3.144
  856SOL    HW1 2583   0.090   3.123   3.212
  856SOL    HW2 2584   0.059   3.270   3.149
  857SOL     OW 2585   0.732   2.496   2.926
  857SOL    HW1 2586   0.791   2.470   2.850
  857SOL    HW2 2587   0.704   2.592   2.915
  858SOL     OW 2588   1.728   2.797   3.716
  858SOL    HW1 2589   1.682   2.790   3.627
  858SOL    HW2 2590   1.666   2.841   3.782
  859SOL     OW 2591   0.307   1.925   2.480
  859SOL    HW1 2592   0.296   2.019   2.513
  859SOL    HW2 2593   0.302   1.862   2.557
  860SOL     OW 2594   1.622   2.229   2.236
  860SOL    HW1 2595   1.624   2.153   2.300
  860SOL    HW2 2596   1.574   2.306   2.276
  861SOL     OW 2597   1.023   2.628   2.828
  861SOL    HW1 2598   1.038   2.649   2.924
  861SOL    HW2 2599   0.993   2.533   2.819
  862SOL     OW 2600   0.980   3.435   3.562
  862SOL    HW1 2601   0.960   3.479   3.474
  862SOL    HW2 2602   1.019   3.344   3.546
  863SOL     OW 2603   1.859   3.380   3.467
  863SOL    HW1 2604   1.873   3.407   3.372
  863SOL    HW2 2605   1.942   3.402   3.520
  864SOL     OW 2606   0.350   2.760   3.666
  864SOL    HW1 2607   0.426   2.804   3.714
  864SOL    HW2 2608   0.385   2.713   3.584
  865SOL     OW 2609   1.540   2.136   1.987
  865SOL    HW1 2610   1.479   2.061   2.010
  865SOL    HW2 2611   1.562   2.188   2.070
  866SOL     OW 2612   1.303   2.700   1.904
  866SOL    HW1 2613   1.337   2.607   1.919
  866SOL    HW2 2614   1.321   2.727   1.809
  867SOL     OW 2615   1.068   3.195   2.711
  867SOL    HW1 2616   1.075   3.111   2.656
  867SOL    HW2 2617   1.130   3.264   2.675
  868SOL     OW 2618   0.319   2.672   2.811
  868SOL    HW1 2619   0.412   2.708   2.816
  868SOL    HW2 2620   0.313   2.587   2.863
  869SOL     OW 2621   0.339   2.371   2.868
  869SOL    HW1 2622   0.287   2.288   2.851
  869SOL    HW2 2623   0.416   2.376   2.804
  870SOL     OW 2624   1.138   2.242   3.540
  870SOL    HW1 2625   1.093   2.305   3.604
  870SOL    HW2 2626   1.231   2.273   3.523
  871SOL     OW 2627   1.160   2.069   3.339
  871SOL    HW1 2628   1.160   2.133   3.416
  871SOL    HW2 2629   1.188   2.117   3.256
  872SOL     OW 2630   0.008   3.188   2.062
  872SOL    HW1 2631  -0.085   3.209   2.031
  872SOL    HW2 2632   0.018   3.089   2.075
  873SOL     OW 2633   0.088   3.663   2.789
  873SOL    HW1 2634   0.046   3.577   2.762
  873SOL    HW2 2635   0.182   3.666   2.755
  874SOL     OW 2636   0.504   3.430   2.772
  874SOL    HW1 2637   0.570   3.504   2.781
  874SOL    HW2 2638   0.548   3.351   2.730
  875SOL     OW 2639   1.002   2.658   3.100
  875SOL    HW1 2640   1.043   2.626   3.186
  875SOL    HW2 2641   0.906   2.631   3.097
  876SOL     OW 2642   0.040   2.406   2.976
  876SOL    HW1 2643   0.125   2.373   2.935
  876SOL    HW2 2644   0.053   2.421   3.074
  877SOL     OW 2645   0.189   2.382   3.584
  877SOL    HW1 2646   0.248   2.342   3.514
  877SOL    HW2 2647   0.131   2.453   3.543
  878SOL     OW 2648   1.369   2.812   3.522
  878SOL    HW1 2649   1.408   2.901   3.542
  878SOL    HW2 2650   1.379   2.792   3.425
  879SOL     OW 2651   0.815   2.434   2.187
  879SOL    HW1 2652   0.822   2.345   2.141
  879SOL    HW2 2653   0.721   2.468   2.179
  880SOL     OW 2654   1.657   2.466   3.068
  880SOL    HW1 2655   1.619   2.397   3.130
  880SOL    HW2 2656   1.739   2.430   3.024
  881SOL     OW 2657   0.252   3.426   3.606
  881SOL    HW1 2658   0.222   3.483   3.682
  881SOL    HW2 2659   0.245   3.329   3.632
  882SOL     OW 2660   0.671   2.326   3.131
  882SOL    HW1 2661   0.637   2.237   3.101
  882SOL    HW2 2662   0.697   2.380   3.051
  883SOL     OW 2663   0.930   3.540   3.327
  883SOL    HW1 2664   0.906   3.522   3.232
  883SOL    HW2 2665   0.960   3.634   3.337
  884SOL     OW 2666   0.473   2.362   2.053
  884SOL    HW1 2667   0.534   2.442   2.057
  884SOL    HW2 2668   0.378   2.393   2.060
  885SOL     OW 2669   0.159   2.999   3.328
  885SOL    HW1 2670   0.181   2.938   3.404
  885SOL    HW2 2671   0.169   2.950   3.242
  886SOL     OW 2672   1.347   2.921   3.096
  886SOL    HW1 2673   1.371   2.858   3.022
  886SOL    HW2 2674   1.257   2.961   3.078
  887SOL     OW 2675   1.302   2.717   2.171
  887SOL    HW1 2676   1.216   2.686   2.213
  887SOL    HW2 2677   1.298   2.703   2.072
  888SOL     OW 2678   1.759   3.609   3.016
  888SOL    HW1 2679   1.820   3.639   2.943
  888SOL    HW2 2680   1.721   3.520   2.994
  889SOL     OW 2681   1.252   3.593   2.990
  889SOL    HW1 2682   1.336   3.598   2.936
  889SOL    HW2 2683   1.229   3.497   3.008
  890SOL     OW 2684   0.083   3.120   2.884
  890SOL    HW1 2685   0.078   3.119   2.984
  890SOL    HW2 2686   0.000   3.079   2.846
  891SOL     OW 2687   0.688   3.524   3.578
  891SOL    HW1 2688   0.632   3.605   3.587
  891SOL    HW2 2689   0.740   3.528   3.492
  892SOL     OW 2690   1.726   1.997   2.385
  892SOL    HW1 2691   1.799   1.980   2.318
  892SOL    HW2 2692   1.695   1.910   2.423
  893SOL     OW 2693   1.388   3.435   2.339
  893SOL    HW1 2694   1.455   3.447   2.265
  893SOL    HW2 2695   1.348   3.524   2.362
  894SOL     OW 2696   0.130   3.656   3.713
  894SOL    HW1 2697   0.089   3.582   3.766
  894SOL    HW2 2698   0.194   3.707   3.771
  895SOL     OW 2699   1.280   2.789   2.534
  895SOL    HW1 2700   1.340   2.708   2.536
  895SOL    HW2 2701   1.320   2.858   2.474
  896SOL     OW 2702   0.830   3.135   3.284
  896SOL    HW1 2703   0.825   3.168   3.379
  896SOL    HW2 2704   0.744   3.154   3.238
  897SOL     OW 2705   0.672   3.478   2.016
  897SOL    HW1 2706   0.681   3.488   1.917
  897SOL    HW2 2707   0.632   3.389   2.037
  898SOL     OW 2708   1.650   3.582   3.256
  898SOL    HW1 2709   1.703   3.592   3.172
  898SOL    HW2 2710   1.623   3.672   3.290
  899SOL     OW 2711   1.841   2.037   2.825
  899SOL    HW1 2712   1.880   1.952   2.789
  899SOL    HW2 2713   1.743   2.039   2.806
  900SOL     OW 2714   0.263   2.188   2.582
  900SOL    HW1 2715   0.184   2.239   2.548
  900SOL    HW2 2716   0.254   2.173   2.680
  901SOL     OW 2717   1.194   3.474   1.893
  901SOL    HW1 2718   1.200   3.381   1.930
  901SOL    HW2 2719   1.135   3.474   1.813
  902SOL     OW 2720   0.822   2.864   3.234
  902SOL    HW1 2721   0.862   2.863   3.142
  902SOL    HW2 2722   0.832   2.956   3.274
  903SOL     OW 2723   0.916   2.772   2.153
  903SOL    HW1 2724   0.979   2.810   2.085
  903SOL    HW2 2725   0.956   2.689   2.192
  904SOL     OW 2726   1.504   3.469   1.906
  904SOL    HW1 2727   1.412   3.506   1.913
  904SOL    HW2 2728   1.542   3.489   1.816
  905SOL     OW 2729   0.372   3.150   3.352
  905SOL    HW1 2730   0.359   3.243   3.318
  905SOL    HW2 2731   0.288   3.098   3.339
  906SOL     OW 2732   1.614   3.154   3.151
  906SOL    HW1 2733   1.674   3.157   3.231
  906SOL    HW2 2734   1.539   3.218   3.164
  907SOL     OW 2735   1.039   2.960   2.558
  907SOL    HW1 2736   0.969   2.913   2.612
  907SOL    HW2 2737   1.098   2.892   2.515
  908SOL     OW 2738   1.014   2.098   2.833
  908SOL    HW1 2739   1.006   2.062   2.740
  908SOL    HW2 2740   1.012   2.022   2.898
  909SOL     OW 2741   0.590   3.349   2.353
  909SOL    HW1 2742   0.632   3.291   2.283
  909SOL    HW2 2743   0.546   3.428   2.309
  910SOL     OW 2744   1.709   2.247   3.243
  910SOL    HW1 2745   1.782   2.316   3.247
  910SOL    HW2 2746   1.737   2.172   3.184
  911SOL     OW 2747   0.255   3.210   2.152
  911SOL    HW1 2748   0.159   3.211   2.125
  911SOL    HW2 2749   0.267   3.263   2.236
  912SOL     OW 2750   0.105   2.875   3.588
  912SOL    HW1 2751   0.028   2.842   3.642
  912SOL    HW2 2752   0.190   2.845   3.630
  913SOL     OW 2753   0.672   2.065   3.351
  913SOL    HW1 2754   0.762   2.049   3.311
  913SOL    HW2 2755   0.680   2.070   3.450
  914SOL     OW 2756   0.075   2.207   1.895
  914SOL    HW1 2757  -0.017   2.179   1.866
  914SOL    HW2 2758   0.106   2.284   1.839
  915SOL     OW 2759   1.440   2.718   3.260
  915SOL    HW1 2760   1.383   2.770   3.197
  915SOL    HW2 2761   1.536   2.730   3.236
  916SOL     OW 2762   0.072   2.028   2.180
  916SOL    HW1 2763   0.055   2.111   2.126
  916SOL    HW2 2764   0.162   1.991   2.158
  917SOL     OW 2765   1.183   3.197   1.981
  917SOL    HW1 2766   1.084   3.186   1.983
  917SOL    HW2 2767   1.217   3.212   2.074
  918SOL     OW 2768   0.613   2.704   3.293
  918SOL    HW1 2769   0.669   2.785   3.276
  918SOL    HW2 2770   0.672   2.624   3.296
  919SOL     OW 2771   1.493   3.629   2.821
  919SOL    HW1 2772   1.526   3.693   2.752
  919SOL    HW2 2773   1.559   3.623   2.896
  920SOL     OW 2774   0.716   2.427   3.570
  920SOL    HW1 2775   0.735   2.492   3.644
  920SOL    HW2 2776   0.776   2.347   3.579
  921SOL     OW 2777   1.450   3.082   3.495
  921SOL    HW1 2778   1.441   3.072   3.594
  921SOL    HW2 2779   1.546   3.075   3.469
  922SOL     OW 2780   0.390   3.603   3.422
  922SOL    HW1 2781   0.299   3.644   3.420
  922SOL    HW2 2782   0.383   3.509   3.454
  923SOL     OW 2783   1.674   2.745   3.116
  923SOL    HW1 2784   1.647   2.656   3.079
  923SOL    HW2 2785   1.675   2.813   3.043
  924SOL     OW 2786   1.225   2.187   2.311
  924SOL    HW1 2787   1.290   2.113   2.300
  924SOL    HW2 2788   1.245   2.237   2.395
  925SOL     OW 2789   0.594   2.607   2.514
  925SOL    HW1 2790   0.644   2.692   2.495
  925SOL    HW2 2791   0.506   2.609   2.466
  926SOL     OW 2792   1.777   2.204   3.504
  926SOL    HW1 2793   1.760   2.235   3.410
  926SOL    HW2 2794   1.693   2.167   3.542
  927SOL     OW 2795   1.730   2.796   3.379
  927SOL    HW1 2796   1.768   2.887   3.394
  927SOL    HW2 2797   1.722   2.779   3.280
  928SOL     OW 2798   0.859   3.236   1.878
  928SOL    HW1 2799   0.813   3.251   1.966
  928SOL    HW2 2800   0.903   3.321   1.848
  929SOL     OW 2801   0.661   3.652   2.815
  929SOL    HW1 2802   0.615   3.740   2.802
  929SOL    HW2 2803   0.760   3.664   2.808
  930SOL     OW 2804   0.859   2.818   2.723
  930SOL    HW1 2805   0.913   2.749   2.771
  930SOL    HW2 2806   0.827   2.887   2.789
  931SOL     OW 2807   1.083   2.846   1.949
  931SOL    HW1 2808   1.060   2.899   1.867
  931SOL    HW2 2809   1.164   2.790   1.930
  932SOL     OW 2810   1.861   3.431   2.713
  932SOL    HW1 2811   1.790   3.419   2.643
  932SOL    HW2 2812   1.862   3.352   2.773
  933SOL     OW 2813   0.221   3.176   3.706
  933SOL    HW1 2814   0.156   3.103   3.685
  933SOL    HW2 2815   0.225   3.190   3.804
  934SOL     OW 2816   0.079   3.102   2.515
  934SOL    HW1 2817   0.078   3.055   2.603
  934SOL    HW2 2818   0.161   3.074   2.464
  935SOL     OW 2819   0.672   3.253   3.486
  935SOL    HW1 2820   0.594   3.203   3.524
  935SOL    HW2 2821   0.669   3.348   3.517
  936SOL     OW 2822   1.824   2.054   3.089
  936SOL    HW1 2823   1.820   1.964   3.133
  936SOL    HW2 2824   1.827   2.043   2.990
  937SOL     OW 2825   0.428   2.286   2.382
  937SOL    HW1 2826   0.458   2.214   2.320
  937SOL    HW2 2827   0.389   2.246   2.465
  938SOL     OW 2828   1.705   3.349   2.966
  938SOL    HW1 2829   1.612   3.324   2.939
  938SOL    HW2 2830   1.731   3.299   3.048
  939SOL     OW 2831   0.317   2.409   3.142
  939SOL    HW1 2832   0.355   2.350   3.214
  939SOL    HW2 2833   0.357   2.383   3.054
  940SOL     OW 2834   0.812   3.448   2.549
  940SOL    HW1 2835   0.844   3.458   2.455
  940SOL    HW2 2836   0.733   3.386   2.551
  941SOL     OW 2837   1.424   2.076   2.974
  941SOL    HW1 2838   1.476   2.011   3.029
  941SOL    HW2 2839   1.375   2.139   3.035
  942SOL     OW 2840   1.001   1.896   3.016
  942SOL    HW1 2841   0.938   1.824   2.985
  942SOL    HW2 2842   1.094   1.860   3.016
  943SOL     OW 2843   0.770   3.192   2.163
  943SOL    HW1 2844   0.724   3.105   2.180
  943SOL    HW2 2845   0.861   3.189   2.204
  944SOL     OW 2846   0.618   3.429   3.146
  944SOL    HW1 2847   0.613   3.511   3.203
  944SOL    HW2 2848   0.707   3.426   3.101
  945SOL     OW 2849   1.352   1.914   2.030
  945SOL    HW1 2850   1.387   1.873   1.946
  945SOL    HW2 2851   1.262   1.876   2.050
  946SOL     OW 2852   1.300   2.315   2.553
  946SOL    HW1 2853   1.241   2.395   2.557
  946SOL    HW2 2854   1.315   2.280   2.646
  947SOL     OW 2855   1.593   2.083   2.744
  947SOL    HW1 2856   1.509   2.082   2.798
  947SOL    HW2 2857   1.595   2.166   2.688
  948SOL     OW 2858   0.039   2.939   2.162
  948SOL    HW1 2859   0.138   2.928   2.153
  948SOL    HW2 2860  -0.001   2.853   2.194
  949SOL     OW 2861   0.875   3.508   2.199
  949SOL    HW1 2862   0.798   3.473   2.145
  949SOL    HW2 2863   0.843   3.579   2.261
  950SOL     OW 2864   0.230   2.490   3.837
  950SOL    HW1 2865   0.137   2.488   3.874
  950SOL    HW2 2866   0.231   2.451   3.745
  951SOL     OW 2867   0.019   2.230   4.371
  951SOL    HW1 2868  -0.063   2.273   4.410
  951SOL    HW2 2869  -0.009   2.157   4.308
  952SOL     OW 2870   1.555   3.373   4.427
  952SOL    HW1 2871   1.498   3.357   4.508
  952SOL    HW2 2872   1.496   3.383   4.347
  953SOL     OW 2873   1.135   2.565   4.441
  953SOL    HW1 2874   1.192   2.643   4.416
  953SOL    HW2 2875   1.075   2.591   4.517
  954SOL     OW 2876   1.755   2.469   3.955
  954SOL    HW1 2877   1.743   2.456   3.856
  954SOL    HW2 2878   1.725   2.388   4.004
  955SOL     OW 2879   0.768   3.006   4.747
  955SOL    HW1 2880   0.690   3.023   4.807
  955SOL    HW2 2881   0.802   3.093   4.711
  956SOL     OW 2882   0.685   2.874   4.389
  956SOL    HW1 2883   0.754   2.858   4.459
  956SOL    HW2 2884   0.612   2.931   4.427
  957SOL     OW 2885   1.603   2.309   4.461
  957SOL    HW1 2886   1.529   2.355   4.411
  957SOL    HW2 2887   1.654   2.377   4.514
  958SOL     OW 2888   0.231   3.575   4.207
  958SOL    HW1 2889   0.265   3.652   4.261
  958SOL    HW2 2890   0.275   3.575   4.117
  959SOL     OW 2891   0.230   3.296   4.262
  959SOL    HW1 2892   0.204   3.392   4.262
  959SOL    HW2 2893   0.159   3.242   4.307
  960SOL     OW 2894   0.240   2.953   4.610
  960SOL    HW1 2895   0.254   2.869   4.662
  960SOL    HW2 2896   0.185   3.017   4.665
  961SOL     OW 2897   0.606   2.826   3.847
  961SOL    HW1 2898   0.613   2.910   3.793
  961SOL    HW2 2899   0.652   2.839   3.935
  962SOL     OW 2900   0.122   2.505   4.287
  962SOL    HW1 2901   0.077   2.417   4.304
  962SOL    HW2 2902   0.121   2.559   4.371
  963SOL     OW 2903   1.842   3.629   4.083
  963SOL    HW1 2904   1.896   3.600   4.163
  963SOL    HW2 2905   1.872   3.719   4.054
  964SOL     OW 2906   0.027   3.458   3.841
  964SOL    HW1 2907   0.008   3.362   3.862
  964SOL    HW2 2908  -0.006   3.516   3.916
  965SOL     OW 2909   1.689   2.784   4.336
  965SOL    HW1 2910   1.784   2.755   4.344
  965SOL    HW2 2911   1.681   2.849   4.261
  966SOL     OW 2912   1.641   2.970   4.156
  966SOL    HW1 2913   1.727   2.972   4.104
  966SOL    HW2 2914   1.655   3.017   4.244
  967SOL     OW 2915   0.613   3.227   4.450
  967SOL    HW1 2916   0.564   3.140   4.459
  967SOL    HW2 2917   0.590   3.270   4.363
  968SOL     OW 2918   0.809   1.866   4.226
  968SOL    HW1 2919   0.849   1.957   4.217
  968SOL    HW2 2920   0.709   1.874   4.232
  969SOL     OW 2921   1.525   2.861   3.914
  969SOL    HW1 2922   1.462   2.785   3.927
  969SOL    HW2 2923   1.573   2.879   4.000
  970SOL     OW 2924   1.667   3.576   4.296
  970SOL    HW1 2925   1.626   3.553   4.208
  970SOL    HW2 2926   1.649   3.502   4.361
  971SOL     OW 2927   0.598   2.591   3.994
  971SOL    HW1 2928   0.622   2.660   3.926
  971SOL    HW2 2929   0.520   2.624   4.048
  972SOL     OW 2930   1.281   2.207   4.668
  972SOL    HW1 2931   1.195   2.157   4.655
  972SOL    HW2 2932   1.343   2.153   4.724
  973SOL     OW 2933   1.576   3.524   4.031
  973SOL    HW1 2934   1.665   3.570   4.034
  973SOL    HW2 2935   1.555   3.500   3.936
  974SOL     OW 2936   1.041   2.563   4.153
  974SOL    HW1 2937   1.067   2.559   4.249
  974SOL    HW2 2938   0.956   2.512   4.139
  975SOL     OW 2939   0.076   2.673   4.513
  975SOL    HW1 2940   0.175   2.661   4.522
  975SOL    HW2 2941   0.052   2.768   4.534
  976SOL     OW 2942   0.865   2.210   3.919
  976SOL    HW1 2943   0.924   2.273   3.870
  976SOL    HW2 2944   0.884   2.116   3.890
  977SOL     OW 2945   1.362   3.006   4.269
  977SOL    HW1 2946   1.445   2.977   4.221
  977SOL    HW2 2947   1.313   3.073   4.213
  978SOL     OW 2948   0.550   2.058   4.609
  978SOL    HW1 2949   0.545   2.053   4.709
  978SOL    HW2 2950   0.552   2.154   4.580
  979SOL     OW 2951   1.008   3.318   4.201
  979SOL    HW1 2952   0.962   3.390   4.149
  979SOL    HW2 2953   1.004   3.338   4.299
  980SOL     OW 2954   0.351   3.663   4.577
  980SOL    HW1 2955   0.401   3.577   4.583
  980SOL    HW2 2956   0.416   3.740   4.574
  981SOL     OW 2957   1.795   2.928   4.597
  981SOL    HW1 2958   1.733   2.913   4.521
  981SOL    HW2 2959   1.743   2.939   4.682
  982SOL     OW 2960   0.321   2.805   3.966
  982SOL    HW1 2961   0.403   2.844   3.924
  982SOL    HW2 2962   0.294   2.723   3.917
  983SOL     OW 2963   1.458   2.597   4.452
  983SOL    HW1 2964   1.453   2.532   4.527
  983SOL    HW2 2965   1.538   2.656   4.465
  984SOL     OW 2966   1.111   3.638   3.961
  984SOL    HW1 2967   1.051   3.576   4.011
  984SOL    HW2 2968   1.142   3.594   3.876
  985SOL     OW 2969   1.632   3.239   3.805
  985SOL    HW1 2970   1.600   3.333   3.795
  985SOL    HW2 2971   1.556   3.176   3.793
  986SOL     OW 2972   0.464   3.605   4.047
  986SOL    HW1 2973   0.497   3.644   4.133
  986SOL    HW2 2974   0.540   3.598   3.982
  987SOL     OW 2975   1.400   1.969   4.150
  987SOL    HW1 2976   1.376   1.932   4.060
  987SOL    HW2 2977   1.499   1.985   4.154
  988SOL     OW 2978   0.382   2.562   4.204
  988SOL    HW1 2979   0.427   2.472   4.201
  988SOL    HW2 2980   0.288   2.551   4.237
  989SOL     OW 2981   0.614   1.984   3.841
  989SOL    HW1 2982   0.712   1.962   3.848
  989SOL    HW2 2983   0.583   1.967   3.748
  990SOL     OW 2984   0.539   1.926   4.236
  990SOL    HW1 2985   0.458   1.927   4.294
  990SOL    HW2 2986   0.542   2.009   4.181
  991SOL     OW 2987   1.434   3.050   3.765
  991SOL    HW1 2988   1.466   2.974   3.822
  991SOL    HW2 2989   1.342   3.077   3.795
  992SOL     OW 2990   0.297   1.897   3.895
  992SOL    HW1 2991   0.346   1.981   3.874
  992SOL    HW2 2992   0.359   1.832   3.940
  993SOL     OW 2993   0.935   2.098   4.204
  993SOL    HW1 2994   0.887   2.139   4.126
  993SOL    HW2 2995   1.034   2.096   4.185
  994SOL     OW 2996   0.459   3.014   4.465
  994SOL    HW1 2997   0.388   2.987   4.530
  994SOL    HW2 2998   0.433   2.986   4.372
  995SOL     OW 2999   1.271   3.659   4.315
  995SOL    HW1 3000   1.315   3.723   4.251
  995SOL    HW2 3001   1.221   3.711   4.385
  996SOL     OW 3002   1.032   2.411   3.740
  996SOL    HW1 3003   0.991   2.493   3.701
  996SOL    HW2 3004   1.096   2.437   3.813
  997SOL     OW 3005   0.866   2.316   4.366
  997SOL    HW1 3006   0.834   2.388   4.304
  997SOL    HW2 3007   0.890   2.235   4.313
  998SOL     OW 3008   1.017   1.901   4.477
  998SOL    HW1 3009   0.945   1.906   4.408
  998SOL    HW2 3010   0.993   1.832   4.546
  999SOL     OW 3011   1.857   2.695   4.101
  999SOL    HW1 3012   1.899   2.631   4.165
  999SOL    HW2 3013   1.819   2.644   4.023
 1000SOL     OW 3014   0.488   3.247   3.898
 1000SOL    HW1 3015   0.401   3.232   3.945
 1000SOL    HW2 3016   0.471   3.273   3.803
 1001SOL     OW 3017   1.664   3.142   4.381
 1001SOL    HW1 3018   1.763   3.150   4.395
 1001SOL    HW2 3019   1.619   3.226   4.412
 1002SOL     OW 3020   1.390   2.437   3.802
 1002SOL    HW1 3021   1.336   2.416   3.883
 1002SOL    HW2 3022   1.481   2.396   3.811
 1003SOL     OW 3023   0.527   2.118   4.052
 1003SOL    HW1 3024   0.554   2.059   3.977
 1003SOL    HW2 3025   0.527   2.213   4.021
 1004SOL     OW 3026   0.705   2.912   4.092
 1004SOL    HW1 3027   0.691   2.919   4.191
 1004SOL    HW2 3028   0.789   2.861   4.074
 1005SOL     OW 3029   0.367   2.962   4.225
 1005SOL    HW1 3030   0.360   3.045   4.169
 1005SOL    HW2 3031   0.371   2.882   4.165
 1006SOL     OW 3032   0.566   2.399   4.589
 1006SOL    HW1 3033   0.578   2.465   4.515
 1006SOL    HW2 3034   0.612   2.433   4.672
 1007SOL     OW 3035   1.252   3.210   4.112
 1007SOL    HW1 3036   1.302   3.287   4.152
 1007SOL    HW2 3037   1.157   3.212   4.144
 1008SOL     OW 3038   1.582   2.501   4.196
 1008SOL    HW1 3039   1.551   2.562   4.269
 1008SOL    HW2 3040   1.632   2.553   4.127
 1009SOL     OW 3041   1.209   2.387   3.999
 1009SOL    HW1 3042   1.222   2.303   4.053
 1009SOL    HW2 3043   1.180   2.461   4.059
 1010SOL     OW 3044   0.307   1.925   4.342
 1010SOL    HW1 3045   0.296   2.019   4.375
 1010SOL    HW2 3046   0.302   1.862   4.419
 1011SOL     OW 3047   1.622   2.229   4.098
 1011SOL    HW1 3048   1.624   2.153   4.162
 1011SOL    HW2 3049   1.574   2.306   4.138
 1012SOL     OW 3050   1.540   2.136   3.849
 1012SOL    HW1 3051   1.479   2.061   3.872
 1012SOL    HW2 3052   1.562   2.188   3.932
 1013SOL     OW 3053   1.303   2.700   3.766
 1013SOL    HW1 3054   1.337   2.607   3.781
 1013SOL    HW2 3055   1.321   2.727   3.671
 1014SOL     OW 3056   1.068   3.195   4.573
 1014SOL    HW1 3057   1.075   3.111   4.518
 1014SOL    HW2 3058   1.130   3.264   4.537
 1015SOL     OW 3059   0.008   3.188   3.924
 1015SOL    HW1 3060  -0.085   3.209   3.893
 1015SOL    HW2 3061   0.018   3.089   3.937
 1016SOL     OW 3062   0.088   3.663   4.651
 1016SOL    HW1 3063   0.046   3.577   4.624
 1016SOL    HW2 3064   0.182   3.666   4.617
 1017SOL     OW 3065   0.815   2.434   4.049
 1017SOL    HW1 3066   0.822   2.345   4.003
 1017SOL    HW2 3067   0.721   2.468   4.041
 1018SOL     OW 3068   0.473   2.362   3.915
 1018SOL    HW1 3069   0.534   2.442   3.919
 1018SOL    HW2 3070   0.378   2.393   3.922
 1019SOL     OW 3071   1.302   2.717   4.033
 1019SOL    HW1 3072   1.216   2.686   4.075
 1019SOL    HW2 3073   1.298   2.703   3.934
 1020SOL     OW 3074   1.726   1.997   4.247
 1020SOL    HW1 3075   1.799   1.980   4.180
 1020SOL    HW2 3076   1.695   1.910   4.285
 1021SOL     OW 3077   1.388   3.435   4.201
 1021SOL    HW1 3078   1.455   3.447   4.127
 1021SOL    HW2 3079   1.348   3.524   4.224
 1022SOL     OW 3080   1.280   2.789   4.396
 1022SOL    HW1 3081   1.340   2.708   4.398
 1022SOL    HW2 3082   1.320   2.858   4.336
 1023SOL     OW 3083   0.672   3.478   3.878
 1023SOL    HW1 3084   0.681   3.488   3.779
 1023SOL    HW2 3085   0.632   3.389   3.899
 1024SOL     OW 3086   1.841   2.037   4.687
 1024SOL    HW1 3087   1.880   1.952   4.651
 1024SOL    HW2 3088   1.743   2.039   4.668
 1025SOL     OW 3089   0.263   2.188   4.444
 1025SOL    HW1 3090   0.184   2.239   4.410
 1025SOL    HW2 3091   0.254   2.173   4.542
 1026SOL     OW 3092   1.194   3.474   3.755
 1026SOL    HW1 3093   1.200   3.381   3.792
 1026SOL    HW2 3094   1.135   3.474   3.675
 1027SOL     OW 3095   0.916   2.772   4.015
 1027SOL    HW1 3096   0.979   2.810   3.947
 1027SOL    HW2 3097   0.956   2.689   4.054
 1028SOL     OW 3098   1.504   3.469   3.768
 1028SOL    HW1 3099   1.412   3.506   3.775
 1028SOL    HW2 3100   1.542   3.489   3.678
 1029SOL     OW 3101   1.039   2.960   4.420
 1029SOL    HW1 3102   0.969   2.913   4.474
 1029SOL    HW2 3103   1.098   2.892   4.377
 1030SOL     OW 3104   0.590   3.349   4.215
 1030SOL    HW1 3105   0.632   3.291   4.145
 1030SOL    HW2 3106   0.546   3.428   4.171
 1031SOL     OW 3107   0.255   3.210   4.014
 1031SOL    HW1 3108   0.159   3.211   3.987
 1031SOL    HW2 3109   0.267   3.263   4.098
 1032SOL     OW 3110   0.075   2.207   3.757
 1032SOL    HW1 3111  -0.017   2.179   3.728
 1032SOL    HW2 3112   0.106   2.284   3.701
 1033SOL     OW 3113   0.072   2.028   4.042
 1033SOL    HW1 3114   0.055   2.111   3.988
 1033SOL    HW2 3115   0.162   1.991   4.020
 1034SOL     OW 3116   1.183   3.197   3.843
 1034SOL    HW1 3117   1.084   3.186   3.845
 1034SOL    HW2 3118   1.217   3.212   3.936
 1035SOL     OW 3119   1.225   2.187   4.173
 1035SOL    HW1 3120   1.290   2.113   4.162
 1035SOL    HW2 3121   1.245   2.237   4.257
 1036SOL     OW 3122   0.594   2.607   4.376
 1036SOL    HW1 3123   0.644   2.692   4.357
 1036SOL    HW2 3124   0.506   2.609   4.328
 1037SOL     OW 3125   0.859   3.236   3.740
 1037SOL    HW1 3126   0.813   3.251   3.828
 1037SOL    HW2 3127   0.903   3.321   3.710
 1038SOL     OW 3128   0.661   3.652   4.677
 1038SOL    HW1 3129   0.615   3.740   4.664
 1038SOL    HW2 3130   0.760   3.664   4.670
 1039SOL     OW 3131   0.859   2.818   4.585
 1039SOL    HW1 3132   0.913   2.749   4.633
 1039SOL    HW2 3133   0.827   2.887   4.651
 1040SOL     OW 3134   1.083   2.846   3.811
 1040SOL    HW1 3135   1.060   2.899   3.729
 1040SOL    HW2 3136   1.164   2.790   3.792
 1041SOL     OW 3137   1.861   3.431   4.575
 1041SOL    HW1 3138   1.790   3.419   4.505
 1041SOL    HW2 3139   1.862   3.352   4.635
 1042SOL     OW 3140   0.079   3.102   4.377
 1042SOL    HW1 3141   0.078   3.055   4.465
 1042SOL    HW2 3142   0.161   3.074   4.326
 1043SOL     OW 3143   0.428   2.286   4.244
 1043SOL    HW1 3144   0.458   2.214   4.182
 1043SOL    HW2 3145   0.389   2.246   4.327
 1044SOL     OW 3146   0.812   3.448   4.411
 1044SOL    HW1 3147   0.844   3.458   4.317
 1044SOL    HW2 3148   0.733   3.386   4.413
 1045SOL     OW 3149   0.770   3.192   4.025
 1045SOL    HW1 3150   0.724   3.105   4.042
 1045SOL    HW2 3151   0.861   3.189   4.066
 1046SOL     OW 3152   1.352   1.914   3.892
 1046SOL    HW1 3153   1.387   1.873   3.808
 1046SOL    HW2 3154   1.262   1.876   3.912
 1047SOL     OW 3155   1.300   2.315   4.415
 1047SOL    HW1 3156   1.241   2.395   4.419
 1047SOL    HW2 3157   1.315   2.280   4.508
 1048SOL     OW 3158   0.039   2.939   4.024
 1048SOL    HW1 3159   0.138   2.928   4.015
 1048SOL    HW2 3160  -0.001   2.853   4.056
 1049SOL     OW 3161   0.875   3.508   4.061
 1049SOL    HW1 3162   0.798   3.473   4.007
 1049SOL    HW2 3163   0.843   3.579   4.123
 1050SOL     OW 3164   0.230   4.352   0.113
 1050SOL    HW1 3165   0.137   4.350   0.150
 1050SOL    HW2 3166   0.231   4.313   0.021
 1051SOL     OW 3167   0.225   3.999   0.996
 1051SOL    HW1 3168   0.260   3.982   1.088
 1051SOL    HW2 3169   0.137   3.954   0.984
 1052SOL     OW 3170   0.019   4.092   0.647
 1052SOL    HW1 3171  -0.063   4.135   0.686
 1052SOL    HW2 3172  -0.009   4.019   0.584
 1053SOL     OW 3173   1.135   4.427   0.717
 1053SOL    HW1 3174   1.192   4.505   0.692
 1053SOL    HW2 3175   1.075   4.453   0.793
 1054SOL     OW 3176   1.755   4.331   0.231
 1054SOL    HW1 3177   1.743   4.318   0.132
 1054SOL    HW2 3178   1.725   4.250   0.280
 1055SOL     OW 3179   0.850   4.522   1.823
 1055SOL    HW1 3180   0.846   4.598   1.888
 1055SOL    HW2 3181   0.872   4.558   1.732
 1056SOL     OW 3182   0.685   4.736   0.665
 1056SOL    HW1 3183   0.754   4.720   0.735
 1056SOL    HW2 3184   0.612   4.793   0.703
 1057SOL     OW 3185   0.438   4.116   1.499
 1057SOL    HW1 3186   0.520   4.060   1.508
 1057SOL    HW2 3187   0.357   4.058   1.503
 1058SOL     OW 3188   1.603   4.171   0.737
 1058SOL    HW1 3189   1.529   4.217   0.687
 1058SOL    HW2 3190   1.654   4.239   0.790
 1059SOL     OW 3191   1.594   3.838   1.480
 1059SOL    HW1 3192   1.576   3.905   1.408
 1059SOL    HW2 3193   1.591   3.884   1.569
 1060SOL     OW 3194   0.122   4.367   0.563
 1060SOL    HW1 3195   0.077   4.279   0.580
 1060SOL    HW2 3196   0.121   4.421   0.647
 1061SOL     OW 3197   0.113   4.461   1.597
 1061SOL    HW1 3198   0.201   4.448   1.642
 1061SOL    HW2 3199   0.100   4.558   1.575
 1062SOL     OW 3200   0.809   3.728   0.502
 1062SOL    HW1 3201   0.849   3.819   0.493
 1062SOL    HW2 3202   0.709   3.736   0.508
 1063SOL     OW 3203   0.317   3.975   1.801
 1063SOL    HW1 3204   0.388   4.046   1.807
 1063SOL    HW2 3205   0.229   4.014   1.829
 1064SOL     OW 3206   0.598   4.453   0.270
 1064SOL    HW1 3207   0.622   4.522   0.202
 1064SOL    HW2 3208   0.520   4.486   0.324
 1065SOL     OW 3209   1.281   4.069   0.944
 1065SOL    HW1 3210   1.195   4.019   0.931
 1065SOL    HW2 3211   1.343   4.015   1.000
 1066SOL     OW 3212   0.807   4.329   1.465
 1066SOL    HW1 3213   0.760   4.326   1.554
 1066SOL    HW2 3214   0.756   4.274   1.399
 1067SOL     OW 3215   1.394   4.193   1.674
 1067SOL    HW1 3216   1.374   4.236   1.762
 1067SOL    HW2 3217   1.472   4.131   1.683
 1068SOL     OW 3218   0.991   4.134   1.242
 1068SOL    HW1 3219   0.914   4.168   1.296
 1068SOL    HW2 3220   0.957   4.083   1.163
 1069SOL     OW 3221   1.041   4.425   0.429
 1069SOL    HW1 3222   1.067   4.421   0.525
 1069SOL    HW2 3223   0.956   4.374   0.415
 1070SOL     OW 3224   0.076   4.535   0.789
 1070SOL    HW1 3225   0.175   4.523   0.798
 1070SOL    HW2 3226   0.052   4.630   0.810
 1071SOL     OW 3227   0.865   4.072   0.195
 1071SOL    HW1 3228   0.924   4.135   0.146
 1071SOL    HW2 3229   0.884   3.978   0.166
 1072SOL     OW 3230   1.719   4.309   1.831
 1072SOL    HW1 3231   1.693   4.398   1.795
 1072SOL    HW2 3232   1.717   4.241   1.758
 1073SOL     OW 3233   0.550   3.920   0.885
 1073SOL    HW1 3234   0.545   3.915   0.985
 1073SOL    HW2 3235   0.552   4.016   0.856
 1074SOL     OW 3236   1.458   4.459   0.728
 1074SOL    HW1 3237   1.453   4.394   0.803
 1074SOL    HW2 3238   1.538   4.518   0.741
 1075SOL     OW 3239   0.202   4.009   1.498
 1075SOL    HW1 3240   0.122   4.069   1.485
 1075SOL    HW2 3241   0.192   3.960   1.584
 1076SOL     OW 3242   1.400   3.831   0.426
 1076SOL    HW1 3243   1.376   3.794   0.336
 1076SOL    HW2 3244   1.499   3.847   0.430
 1077SOL     OW 3245   0.382   4.424   0.480
 1077SOL    HW1 3246   0.427   4.334   0.477
 1077SOL    HW2 3247   0.288   4.413   0.513
 1078SOL     OW 3248   1.547   3.946   1.729
 1078SOL    HW1 3249   1.542   3.983   1.821
 1078SOL    HW2 3250   1.475   3.877   1.717
 1079SOL     OW 3251   0.781   3.988   1.749
 1079SOL    HW1 3252   0.848   3.927   1.792
 1079SOL    HW2 3253   0.708   4.007   1.814
 1080SOL     OW 3254   1.351   4.314   1.433
 1080SOL    HW1 3255   1.379   4.271   1.518
 1080SOL    HW2 3256   1.376   4.410   1.434
 1081SOL     OW 3257   0.922   4.227   0.899
 1081SOL    HW1 3258   0.897   4.218   0.803
 1081SOL    HW2 3259   0.970   4.145   0.930
 1082SOL     OW 3260   0.539   3.788   0.512
 1082SOL    HW1 3261   0.458   3.789   0.570
 1082SOL    HW2 3262   0.542   3.871   0.457
 1083SOL     OW 3263   0.297   3.759   0.171
 1083SOL    HW1 3264   0.346   3.843   0.150
 1083SOL    HW2 3265   0.359   3.694   0.216
 1084SOL     OW 3266   0.935   3.960   0.480
 1084SOL    HW1 3267   0.887   4.001   0.402
 1084SOL    HW2 3268   1.034   3.958   0.461
 1085SOL     OW 3269   1.076   4.407   1.464
 1085SOL    HW1 3270   0.996   4.346   1.467
 1085SOL    HW2 3271   1.157   4.354   1.440
 1086SOL     OW 3272   1.032   4.273   0.016
 1086SOL    HW1 3273   0.991   4.355  -0.023
 1086SOL    HW2 3274   1.096   4.299   0.089
 1087SOL     OW 3275   0.078   4.280   1.386
 1087SOL    HW1 3276   0.170   4.279   1.345
 1087SOL    HW2 3277   0.072   4.354   1.453
 1088SOL     OW 3278   0.561   3.946   1.147
 1088SOL    HW1 3279   0.599   3.862   1.184
 1088SOL    HW2 3280   0.473   3.965   1.191
 1089SOL     OW 3281   0.866   4.178   0.642
 1089SOL    HW1 3282   0.834   4.250   0.580
 1089SOL    HW2 3283   0.890   4.097   0.589
 1090SOL     OW 3284   1.017   3.763   0.753
 1090SOL    HW1 3285   0.945   3.768   0.684
 1090SOL    HW2 3286   0.993   3.694   0.822
 1091SOL     OW 3287   1.466   4.314   0.992
 1091SOL    HW1 3288   1.436   4.219   0.999
 1091SOL    HW2 3289   1.539   4.330   1.058
 1092SOL     OW 3290   1.857   4.557   0.377
 1092SOL    HW1 3291   1.899   4.493   0.441
 1092SOL    HW2 3292   1.819   4.506   0.299
 1093SOL     OW 3293   1.390   4.299   0.078
 1093SOL    HW1 3294   1.336   4.278   0.159
 1093SOL    HW2 3295   1.481   4.258   0.087
 1094SOL     OW 3296   0.527   3.980   0.328
 1094SOL    HW1 3297   0.554   3.921   0.253
 1094SOL    HW2 3298   0.527   4.075   0.297
 1095SOL     OW 3299   0.915   3.813   1.402
 1095SOL    HW1 3300   0.940   3.793   1.307
 1095SOL    HW2 3301   0.987   3.869   1.444
 1096SOL     OW 3302   0.410   4.537   1.251
 1096SOL    HW1 3303   0.496   4.549   1.301
 1096SOL    HW2 3304   0.368   4.450   1.278
 1097SOL     OW 3305   1.274   4.110   1.262
 1097SOL    HW1 3306   1.295   4.184   1.326
 1097SOL    HW2 3307   1.185   4.127   1.219
 1098SOL     OW 3308   0.566   4.261   0.865
 1098SOL    HW1 3309   0.578   4.327   0.791
 1098SOL    HW2 3310   0.612   4.295   0.948
 1099SOL     OW 3311   1.582   4.363   0.472
 1099SOL    HW1 3312   1.551   4.424   0.545
 1099SOL    HW2 3313   1.632   4.415   0.403
 1100SOL     OW 3314   0.402   4.475   1.598
 1100SOL    HW1 3315   0.470   4.530   1.551
 1100SOL    HW2 3316   0.442   4.387   1.625
 1101SOL     OW 3317   1.587   4.503   1.670
 1101SOL    HW1 3318   1.495   4.541   1.665
 1101SOL    HW2 3319   1.647   4.550   1.605
 1102SOL     OW 3320   1.013   3.829   1.770
 1102SOL    HW1 3321   1.019   3.914   1.718
 1102SOL    HW2 3322   1.045   3.753   1.713
 1103SOL     OW 3323   0.504   3.774   1.740
 1103SOL    HW1 3324   0.462   3.717   1.670
 1103SOL    HW2 3325   0.438   3.843   1.772
 1104SOL     OW 3326   0.573   4.594   1.029
 1104SOL    HW1 3327   0.617   4.683   1.020
 1104SOL    HW2 3328   0.510   4.594   1.106
 1105SOL     OW 3329   1.360   4.586   1.045
 1105SOL    HW1 3330   1.285   4.586   0.979
 1105SOL    HW2 3331   1.397   4.494   1.054
 1106SOL     OW 3332   1.209   4.249   0.275
 1106SOL    HW1 3333   1.222   4.165   0.329
 1106SOL    HW2 3334   1.180   4.323   0.335
 1107SOL     OW 3335   0.307   3.937   1.231
 1107SOL    HW1 3336   0.284   3.974   1.321
 1107SOL    HW2 3337   0.277   3.842   1.225
 1108SOL     OW 3338   0.732   4.358   1.064
 1108SOL    HW1 3339   0.791   4.332   0.988
 1108SOL    HW2 3340   0.704   4.454   1.053
 1109SOL     OW 3341   1.728   4.659   1.854
 1109SOL    HW1 3342   1.682   4.652   1.765
 1109SOL    HW2 3343   1.666   4.703   1.920
 1110SOL     OW 3344   0.307   3.787   0.618
 1110SOL    HW1 3345   0.296   3.881   0.651
 1110SOL    HW2 3346   0.302   3.724   0.695
 1111SOL     OW 3347   1.622   4.091   0.374
 1111SOL    HW1 3348   1.624   4.015   0.438
 1111SOL    HW2 3349   1.574   4.168   0.414
 1112SOL     OW 3350   1.023   4.490   0.966
 1112SOL    HW1 3351   1.038   4.511   1.062
 1112SOL    HW2 3352   0.993   4.395   0.957
 1113SOL     OW 3353   1.540   3.998   0.125
 1113SOL    HW1 3354   1.479   3.923   0.148
 1113SOL    HW2 3355   1.562   4.050   0.208
 1114SOL     OW 3356   0.319   4.534   0.949
 1114SOL    HW1 3357   0.412   4.570   0.954
 1114SOL    HW2 3358   0.313   4.449   1.001
 1115SOL     OW 3359   0.339   4.233   1.006
 1115SOL    HW1 3360   0.287   4.150   0.989
 1115SOL    HW2 3361   0.416   4.238   0.942
 1116SOL     OW 3362   1.138   4.104   1.678
 1116SOL    HW1 3363   1.093   4.167   1.742
 1116SOL    HW2 3364   1.231   4.135   1.661
 1117SOL     OW 3365   1.160   3.931   1.477
 1117SOL    HW1 3366   1.160   3.995   1.554
 1117SOL    HW2 3367   1.188   3.979   1.394
 1118SOL     OW 3368   1.002   4.520   1.238
 1118SOL    HW1 3369   1.043   4.488   1.324
 1118SOL    HW2 3370   0.906   4.493   1.235
 1119SOL     OW 3371   0.040   4.268   1.114
 1119SOL    HW1 3372   0.125   4.235   1.073
 1119SOL    HW2 3373   0.053   4.283   1.212
 1120SOL     OW 3374   0.189   4.244   1.722
 1120SOL    HW1 3375   0.248   4.204   1.652
 1120SOL    HW2 3376   0.131   4.315   1.681
 1121SOL     OW 3377   0.815   4.296   0.325
 1121SOL    HW1 3378   0.822   4.207   0.279
 1121SOL    HW2 3379   0.721   4.330   0.317
 1122SOL     OW 3380   1.657   4.328   1.206
 1122SOL    HW1 3381   1.619   4.259   1.268
 1122SOL    HW2 3382   1.739   4.292   1.162
 1123SOL     OW 3383   0.671   4.188   1.269
 1123SOL    HW1 3384   0.637   4.099   1.239
 1123SOL    HW2 3385   0.697   4.242   1.189
 1124SOL     OW 3386   0.473   4.224   0.191
 1124SOL    HW1 3387   0.534   4.304   0.195
 1124SOL    HW2 3388   0.378   4.255   0.198
 1125SOL     OW 3389   0.903   3.810   0.133
 1125SOL    HW1 3390   0.954   3.811   0.047
 1125SOL    HW2 3391   0.959   3.768   0.204
 1126SOL     OW 3392   1.726   3.859   0.523
 1126SOL    HW1 3393   1.799   3.842   0.456
 1126SOL    HW2 3394   1.695   3.772   0.561
 1127SOL     OW 3395   1.280   4.651   0.672
 1127SOL    HW1 3396   1.340   4.570   0.674
 1127SOL    HW2 3397   1.320   4.720   0.612
 1128SOL     OW 3398   1.841   3.899   0.963
 1128SOL    HW1 3399   1.880   3.814   0.927
 1128SOL    HW2 3400   1.743   3.901   0.944
 1129SOL     OW 3401   0.263   4.050   0.720
 1129SOL    HW1 3402   0.184   4.101   0.686
 1129SOL    HW2 3403   0.254   4.035   0.818
 1130SOL     OW 3404   1.014   3.960   0.971
 1130SOL    HW1 3405   1.006   3.924   0.878
 1130SOL    HW2 3406   1.012   3.884   1.036
 1131SOL     OW 3407   1.709   4.109   1.381
 1131SOL    HW1 3408   1.782   4.178   1.385
 1131SOL    HW2 3409   1.737   4.034   1.322
 1132SOL     OW 3410   0.105   4.737   1.726
 1132SOL    HW1 3411   0.028   4.704   1.780
 1132SOL    HW2 3412   0.190   4.707   1.768
 1133SOL     OW 3413   0.672   3.927   1.489
 1133SOL    HW1 3414   0.762   3.911   1.449
 1133SOL    HW2 3415   0.680   3.932   1.588
 1134SOL     OW 3416   0.075   4.069   0.033
 1134SOL    HW1 3417  -0.017   4.041   0.004
 1134SOL    HW2 3418   0.106   4.146  -0.023
 1135SOL     OW 3419   1.440   4.580   1.398
 1135SOL    HW1 3420   1.383   4.632   1.335
 1135SOL    HW2 3421   1.536   4.592   1.374
 1136SOL     OW 3422   0.072   3.890   0.318
 1136SOL    HW1 3423   0.055   3.973   0.264
 1136SOL    HW2 3424   0.162   3.853   0.296
 1137SOL     OW 3425   0.613   4.566   1.431
 1137SOL    HW1 3426   0.669   4.647   1.414
 1137SOL    HW2 3427   0.672   4.486   1.434
 1138SOL     OW 3428   0.716   4.289   1.708
 1138SOL    HW1 3429   0.735   4.354   1.782
 1138SOL    HW2 3430   0.776   4.209   1.717
 1139SOL     OW 3431   1.674   4.607   1.254
 1139SOL    HW1 3432   1.647   4.518   1.217
 1139SOL    HW2 3433   1.675   4.675   1.181
 1140SOL     OW 3434   1.225   4.049   0.449
 1140SOL    HW1 3435   1.290   3.975   0.438
 1140SOL    HW2 3436   1.245   4.099   0.533
 1141SOL     OW 3437   0.594   4.469   0.652
 1141SOL    HW1 3438   0.644   4.554   0.633
 1141SOL    HW2 3439   0.506   4.471   0.604
 1142SOL     OW 3440   1.777   4.066   1.642
 1142SOL    HW1 3441   1.760   4.097   1.548
 1142SOL    HW2 3442   1.693   4.029   1.680
 1143SOL     OW 3443   1.730   4.658   1.517
 1143SOL    HW1 3444   1.768   4.749   1.532
 1143SOL    HW2 3445   1.722   4.641   1.418
 1144SOL     OW 3446   1.824   3.916   1.227
 1144SOL    HW1 3447   1.820   3.826   1.271
 1144SOL    HW2 3448   1.827   3.905   1.128
 1145SOL     OW 3449   0.428   4.148   0.520
 1145SOL    HW1 3450   0.458   4.076   0.458
 1145SOL    HW2 3451   0.389   4.108   0.603
 1146SOL     OW 3452   0.317   4.271   1.280
 1146SOL    HW1 3453   0.355   4.212   1.352
 1146SOL    HW2 3454   0.357   4.245   1.192
 1147SOL     OW 3455   1.424   3.938   1.112
 1147SOL    HW1 3456   1.476   3.873   1.167
 1147SOL    HW2 3457   1.375   4.001   1.173
 1148SOL     OW 3458   1.001   3.758   1.154
 1148SOL    HW1 3459   0.938   3.686   1.123
 1148SOL    HW2 3460   1.094   3.722   1.154
 1149SOL     OW 3461   1.352   3.776   0.168
 1149SOL    HW1 3462   1.387   3.735   0.084
 1149SOL    HW2 3463   1.262   3.738   0.188
 1150SOL     OW 3464   1.300   4.177   0.691
 1150SOL    HW1 3465   1.241   4.257   0.695
 1150SOL    HW2 3466   1.315   4.142   0.784
 1151SOL     OW 3467   1.593   3.945   0.882
 1151SOL    HW1 3468   1.509   3.944   0.936
 1151SOL    HW2 3469   1.595   4.028   0.826
 1152SOL     OW 3470   0.230   4.352   1.975
 1152SOL    HW1 3471   0.137   4.350   2.012
 1152SOL    HW2 3472   0.231   4.313   1.883
 1153SOL     OW 3473   0.225   3.999   2.858
 1153SOL    HW1 3474   0.260   3.982   2.950
 1153SOL    HW2 3475   0.137   3.954   2.846
 1154SOL     OW 3476   0.019   4.092   2.509
 1154SOL    HW1 3477  -0.063   4.135   2.548
 1154SOL    HW2 3478  -0.009   4.019   2.446
 1155SOL     OW 3479   1.135   4.427   2.579
 1155SOL    HW1 3480   1.192   4.505   2.554
 1155SOL    HW2 3481   1.075   4.453   2.655
 1156SOL     OW 3482   1.755   4.331   2.093
 1156SOL    HW1 3483   1.743   4.318   1.994
 1156SOL    HW2 3484   1.725   4.250   2.142
 1157SOL     OW 3485   0.850   4.522   3.685
 1157SOL    HW1 3486   0.846   4.598   3.750
 1157SOL    HW2 3487   0.872   4.558   3.594
 1158SOL     OW 3488   0.685   4.736   2.527
 1158SOL    HW1 3489   0.754   4.720   2.597
 1158SOL    HW2 3490   0.612   4.793   2.565
 1159SOL     OW 3491   0.438   4.116   3.361
 1159SOL    HW1 3492   0.520   4.060   3.370
 1159SOL    HW2 3493   0.357   4.058   3.365
 1160SOL     OW 3494   1.603   4.171   2.599
 1160SOL    HW1 3495   1.529   4.217   2.549
 1160SOL    HW2 3496   1.654   4.239   2.652
 1161SOL     OW 3497   1.594   3.838   3.342
 1161SOL    HW1 3498   1.576   3.905   3.270
 1161SOL    HW2 3499   1.591   3.884   3.431
 1162SOL     OW 3500   0.122   4.367   2.425
 1162SOL    HW1 3501   0.077   4.279   2.442
 1162SOL    HW2 3502   0.121   4.421   2.509
 1163SOL     OW 3503   0.113   4.461   3.459
 1163SOL    HW1 3504   0.201   4.448   3.504
 1163SOL    HW2 3505   0.100   4.558   3.437
 1164SOL     OW 3506   0.809   3.728   2.364
 1164SOL    HW1 3507   0.849   3.819   2.355
 1164SOL    HW2 3508   0.709   3.736   2.370
 1165SOL     OW 3509   0.317   3.975   3.663
 1165SOL    HW1 3510   0.388   4.046   3.669
 1165SOL    HW2 3511   0.229   4.014   3.691
 1166SOL     OW 3512   0.598   4.453   2.132
 1166SOL    HW1 3513   0.622   4.522   2.064
 1166SOL    HW2 3514   0.520   4.486   2.186
 1167SOL     OW 3515   1.281   4.069   2.806
 1167SOL    HW1 3516   1.195   4.019   2.793
 1167SOL    HW2 3517   1.343   4.015   2.862
 1168SOL     OW 3518   0.807   4.329   3.327
 1168SOL    HW1 3519   0.760   4.326   3.416
 1168SOL    HW2 3520   0.756   4.274   3.261
 1169SOL     OW 3521   1.394   4.193   3.536
 1169SOL    HW1 3522   1.374   4.236   3.624
 1169SOL    HW2 3523   1.472   4.131   3.545
 1170SOL     OW 3524   0.991   4.134   3.104
 1170SOL    HW1 3525   0.914   4.168   3.158
 1170SOL    HW2 3526   0.957   4.083   3.025
 1171SOL     OW 3527   1.041   4.425   2.291
 1171SOL    HW1 3528   1.067   4.421   2.387
 1171SOL    HW2 3529   0.956   4.374   2.277
 1172SOL     OW 3530   0.076   4.535   2.651
 1172SOL    HW1 3531   0.175   4.523   2.660
 1172SOL    HW2 3532   0.052   4.630   2.672
 1173SOL     OW 3533   0.865   4.072   2.057
 1173SOL    HW1 3534   0.924   4.135   2.008
 1173SOL    HW2 3535   0.884   3.978   2.028
 1174SOL     OW 3536   1.719   4.309   3.693
 1174SOL    HW1 3537   1.693   4.398   3.657
 1174SOL    HW2 3538   1.717   4.241   3.620
 1175SOL     OW 3539   0.550   3.920   2.747
 1175SOL    HW1 3540   0.545   3.915   2.847
 1175SOL    HW2 3541   0.552   4.016   2.718
 1176SOL     OW 3542   1.458   4.459   2.590
 1176SOL    HW1 3543   1.453   4.394   2.665
 1176SOL    HW2 3544   1.538   4.518   2.603
 1177SOL     OW 3545   0.202   4.009   3.360
 1177SOL    HW1 3546   0.122   4.069   3.347
 1177SOL    HW2 3547   0.192   3.960   3.446
 1178SOL     OW 3548   1.400   3.831   2.288
 1178SOL    HW1 3549   1.376   3.794   2.198
 1178SOL    HW2 3550   1.499   3.847   2.292
 1179SOL     OW 3551   0.382   4.424   2.342
 1179SOL    HW1 3552   0.427   4.334   2.339
 1179SOL    HW2 3553   0.288   4.413   2.375
 1180SOL     OW 3554   1.547   3.946   3.591
 1180SOL    HW1 3555   1.542   3.983   3.683
 1180SOL    HW2 3556   1.475   3.877   3.579
 1181SOL     OW 3557   0.614   3.846   1.979
 1181SOL    HW1 3558   0.712   3.824   1.986
 1181SOL    HW2 3559   0.583   3.829   1.886
 1182SOL     OW 3560   0.781   3.988   3.611
 1182SOL    HW1 3561   0.848   3.927   3.654
 1182SOL    HW2 3562   0.708   4.007   3.676
 1183SOL     OW 3563   1.351   4.314   3.295
 1183SOL    HW1 3564   1.379   4.271   3.380
 1183SOL    HW2 3565   1.376   4.410   3.296
 1184SOL     OW 3566   0.922   4.227   2.761
 1184SOL    HW1 3567   0.897   4.218   2.665
 1184SOL    HW2 3568   0.970   4.145   2.792
 1185SOL     OW 3569   0.539   3.788   2.374
 1185SOL    HW1 3570   0.458   3.789   2.432
 1185SOL    HW2 3571   0.542   3.871   2.319
 1186SOL     OW 3572   0.297   3.759   2.033
 1186SOL    HW1 3573   0.346   3.843   2.012
 1186SOL    HW2 3574   0.359   3.694   2.078
 1187SOL     OW 3575   0.935   3.960   2.342
 1187SOL    HW1 3576   0.887   4.001   2.264
 1187SOL    HW2 3577   1.034   3.958   2.323
 1188SOL     OW 3578   1.076   4.407   3.326
 1188SOL    HW1 3579   0.996   4.346   3.329
 1188SOL    HW2 3580   1.157   4.354   3.302
 1189SOL     OW 3581   1.032   4.273   1.878
 1189SOL    HW1 3582   0.991   4.355   1.839
 1189SOL    HW2 3583   1.096   4.299   1.951
 1190SOL     OW 3584   0.078   4.280   3.248
 1190SOL    HW1 3585   0.170   4.279   3.207
 1190SOL    HW2 3586   0.072   4.354   3.315
 1191SOL     OW 3587   0.561   3.946   3.009
 1191SOL    HW1 3588   0.599   3.862   3.046
 1191SOL    HW2 3589   0.473   3.965   3.053
 1192SOL     OW 3590   0.866   4.178   2.504
 1192SOL    HW1 3591   0.834   4.250   2.442
 1192SOL    HW2 3592   0.890   4.097   2.451
 1193SOL     OW 3593   1.017   3.763   2.615
 1193SOL    HW1 3594   0.945   3.768   2.546
 1193SOL    HW2 3595   0.993   3.694   2.684
 1194SOL     OW 3596   1.466   4.314   2.854
 1194SOL    HW1 3597   1.436   4.219   2.861
 1194SOL    HW2 3598   1.539   4.330   2.920
 1195SOL     OW 3599   1.857   4.557   2.239
 1195SOL    HW1 3600   1.899   4.493   2.303
 1195SOL    HW2 3601   1.819   4.506   2.161
 1196SOL     OW 3602   1.390   4.299   1.940
 1196SOL    HW1 3603   1.336   4.278   2.021
 1196SOL    HW2 3604   1.481   4.258   1.949
 1197SOL     OW 3605   0.527   3.980   2.190
 1197SOL    HW1 3606   0.554   3.921   2.115
 1197SOL    HW2 3607   0.527   4.075   2.159
 1198SOL     OW 3608   0.915   3.813   3.264
 1198SOL    HW1 3609   0.940   3.793   3.169
 1198SOL    HW2 3610   0.987   3.869   3.306
 1199SOL     OW 3611   0.410   4.537   3.113
 1199SOL    HW1 3612   0.496   4.549   3.163
 1199SOL    HW2 3613   0.368   4.450   3.140
 1200SOL     OW 3614   1.274   4.110   3.124
 1200SOL    HW1 3615   1.295   4.184   3.188
 1200SOL    HW2 3616   1.185   4.127   3.081
 1201SOL     OW 3617   0.566   4.261   2.727
 1201SOL    HW1 3618   0.578   4.327   2.653
 1201SOL    HW2 3619   0.612   4.295   2.810
 1202SOL     OW 3620   1.582   4.363   2.334
 1202SOL    HW1 3621   1.551   4.424   2.407
 1202SOL    HW2 3622   1.632   4.415   2.265
 1203SOL     OW 3623   0.402   4.475   3.460
 1203SOL    HW1 3624   0.470   4.530   3.413
 1203SOL    HW2 3625   0.442   4.387   3.487
 1204SOL     OW 3626   1.587   4.503   3.532
 1204SOL    HW1 3627   1.495   4.541   3.527
 1204SOL    HW2 3628   1.647   4.550   3.467
 1205SOL     OW 3629   1.013   3.829   3.632
 1205SOL    HW1 3630   1.019   3.914   3.580
 1205SOL    HW2 3631   1.045   3.753   3.575
 1206SOL     OW 3632   0.504   3.774   3.602
 1206SOL    HW1 3633   0.462   3.717   3.532
 1206SOL    HW2 3634   0.438   3.843   3.634
 1207SOL     OW 3635   0.573   4.594   2.891
 1207SOL    HW1 3636   0.617   4.683   2.882
 1207SOL    HW2 3637   0.510   4.594   2.968
 1208SOL     OW 3638   1.360   4.586   2.907
 1208SOL    HW1 3639   1.285   4.586   2.841
 1208SOL    HW2 3640   1.397   4.494   2.916
 1209SOL     OW 3641   1.209   4.249   2.137
 1209SOL    HW1 3642   1.222   4.165   2.191
 1209SOL    HW2 3643   1.180   4.323   2.197
 1210SOL     OW 3644   0.307   3.937   3.093
 1210SOL    HW1 3645   0.284   3.974   3.183
 1210SOL    HW2 3646   0.277   3.842   3.087
 1211SOL     OW 3647   0.732   4.358   2.926
 1211SOL    HW1 3648   0.791   4.332   2.850
 1211SOL    HW2 3649   0.704   4.454   2.915
 1212SOL     OW 3650   1.728   4.659   3.716
 1212SOL    HW1 3651   1.682   4.652   3.627
 1212SOL    HW2 3652   1.666   4.703   3.782
 1213SOL     OW 3653   0.307   3.787   2.480
 1213SOL    HW1 3654   0.296   3.881   2.513
 1213SOL    HW2 3655   0.302   3.724   2.557
 1214SOL     OW 3656   1.622   4.091   2.236
 1214SOL    HW1 3657   1.624   4.015   2.300
 1214SOL    HW2 3658   1.574   4.168   2.276
 1215SOL     OW 3659   1.023   4.490   2.828
 1215SOL    HW1 3660   1.038   4.511   2.924
 1215SOL    HW2 3661   0.993   4.395   2.819
 1216SOL     OW 3662   1.540   3.998   1.987
 1216SOL    HW1 3663   1.479   3.923   2.010
 1216SOL    HW2 3664   1.562   4.050   2.070
 1217SOL     OW 3665   0.319   4.534   2.811
 1217SOL    HW1 3666   0.412   4.570   2.816
 1217SOL    HW2 3667   0.313   4.449   2.863
 1218SOL     OW 3668   0.339   4.233   2.868
 1218SOL    HW1 3669   0.287   4.150   2.851
 1218SOL    HW2 3670   0.416   4.238   2.804
 1219SOL     OW 3671   1.138   4.104   3.540
 1219SOL    HW1 3672   1.093   4.167   3.604
 1219SOL    HW2 3673   1.231   4.135   3.523
 1220SOL     OW 3674   1.160   3.931   3.339
 1220SOL    HW1 3675   1.160   3.995   3.416
 1220SOL    HW2 3676   1.188   3.979   3.256
 1221SOL     OW 3677   1.002   4.520   3.100
 1221SOL    HW1 3678   1.043   4.488   3.186
 1221SOL    HW2 3679   0.906   4.493   3.097
 1222SOL     OW 3680   0.040   4.268   2.976
 1222SOL    HW1 3681   0.125   4.235   2.935
 1222SOL    HW2 3682   0.053   4.283   3.074
 1223SOL     OW 3683   0.189   4.244   3.584
 1223SOL    HW1 3684   0.248   4.204   3.514
 1223SOL    HW2 3685   0.131   4.315   3.543
 1224SOL     OW 3686   0.815   4.296   2.187
 1224SOL    HW1 3687   0.822   4.207   2.141
 1224SOL    HW2 3688   0.721   4.330   2.179
 1225SOL     OW 3689   1.657   4.328   3.068
 1225SOL    HW1 3690   1.619   4.259   3.130
 1225SOL    HW2 3691   1.739   4.292   3.024
 1226SOL     OW 3692   0.671   4.188   3.131
 1226SOL    HW1 3693   0.637   4.099   3.101
 1226SOL    HW2 3694   0.697   4.242   3.051
 1227SOL     OW 3695   0.473   4.224   2.053
 1227SOL    HW1 3696   0.534   4.304   2.057
 1227SOL    HW2 3697   0.378   4.255   2.060
 1228SOL     OW 3698   1.726   3.859   2.385
 1228SOL    HW1 3699   1.799   3.842   2.318
 1228SOL    HW2 3700   1.695   3.772   2.423
 1229SOL     OW 3701   1.280   4.651   2.534
 1229SOL    HW1 3702   1.340   4.570   2.536
 1229SOL    HW2 3703   1.320   4.720   2.474
 1230SOL     OW 3704   1.841   3.899   2.825
 1230SOL    HW1 3705   1.880   3.814   2.789
 1230SOL    HW2 3706   1.743   3.901   2.806
 1231SOL     OW 3707   0.263   4.050   2.582
 1231SOL    HW1 3708   0.184   4.101   2.548
 1231SOL    HW2 3709   0.254   4.035   2.680
 1232SOL     OW 3710   0.916   4.634   2.153
 1232SOL    HW1 3711   0.979   4.672   2.085
 1232SOL    HW2 3712   0.956   4.551   2.192
 1233SOL     OW 3713   1.014   3.960   2.833
 1233SOL    HW1 3714   1.006   3.924   2.740
 1233SOL    HW2 3715   1.012   3.884   2.898
 1234SOL     OW 3716   1.709   4.109   3.243
 1234SOL    HW1 3717   1.782   4.178   3.247
 1234SOL    HW2 3718   1.737   4.034   3.184
 1235SOL     OW 3719   0.105   4.737   3.588
 1235SOL    HW1 3720   0.028   4.704   3.642
 1235SOL    HW2 3721   0.190   4.707   3.630
 1236SOL     OW 3722   0.672   3.927   3.351
 1236SOL    HW1 3723   0.762   3.911   3.311
 1236SOL    HW2 3724   0.680   3.932   3.450
 1237SOL     OW 3725   0.075   4.069   1.895
 1237SOL    HW1 3726  -0.017   4.041   1.866
 1237SOL    HW2 3727   0.106   4.146   1.839
 1238SOL     OW 3728   1.440   4.580   3.260
 1238SOL    HW1 3729   1.383   4.632   3.197
 1238SOL    HW2 3730   1.536   4.592   3.236
 1239SOL     OW 3731   0.072   3.890   2.180
 1239SOL    HW1 3732   0.055   3.973   2.126
 1239SOL    HW2 3733   0.162   3.853   2.158
 1240SOL     OW 3734   0.613   4.566   3.293
 1240SOL    HW1 3735   0.669   4.647   3.276
 1240SOL    HW2 3736   0.672   4.486   3.296
 1241SOL     OW 3737   0.716   4.289   3.570
 1241SOL    HW1 3738   0.735   4.354   3.644
 1241SOL    HW2 3739   0.776   4.209   3.579
 1242SOL     OW 3740   1.674   4.607   3.116
 1242SOL    HW1 3741   1.647   4.518   3.079
 1242SOL    HW2 3742   1.675   4.675   3.043
 1243SOL     OW 3743   1.225   4.049   2.311
 1243SOL    HW1 3744   1.290   3.975   2.300
 1243SOL    HW2 3745   1.245   4.099   2.395
 1244SOL     OW 3746   0.594   4.469   2.514
 1244SOL    HW1 3747   0.644   4.554   2.495
 1244SOL    HW2 3748   0.506   4.471   2.466
 1245SOL     OW 3749   1.777   4.066   3.504
 1245SOL    HW1 3750   1.760   4.097   3.410
 1245SOL    HW2 3751   1.693   4.029   3.542
 1246SOL     OW 3752   1.730   4.658   3.379
 1246SOL    HW1 3753   1.768   4.749   3.394
 1246SOL    HW2 3754   1.722   4.641   3.280
 1247SOL     OW 3755   1.824   3.916   3.089
 1247SOL    HW1 3756   1.820   3.826   3.133
 1247SOL    HW2 3757   1.827   3.905   2.990
 1248SOL     OW 3758   0.428   4.148   2.382
 1248SOL    HW1 3759   0.458   4.076   2.320
 1248SOL    HW2 3760   0.389   4.108   2.465
 1249SOL     OW 3761   0.317   4.271   3.142
 1249SOL    HW1 3762   0.355   4.212   3.214
 1249SOL    HW2 3763   0.357   4.245   3.054
 1250SOL     OW 3764   1.424   3.938   2.974
 1250SOL    HW1 3765   1.476   3.873   3.029
 1250SOL    HW2 3766   1.375   4.001   3.035
 1251SOL     OW 3767   1.001   3.758   3.016
 1251SOL    HW1 3768   0.938   3.686   2.985
 1251SOL    HW2 3769   1.094   3.722   3.016
 1252SOL     OW 3770   1.352   3.776   2.030
 1252SOL    HW1 3771   1.387   3.735   1.946
 1252SOL    HW2 3772   1.262   3.738   2.050
 1253SOL     OW 3773   1.300   4.177   2.553
 1253SOL    HW1 3774   1.241   4.257   2.557
 1253SOL    HW2 3775   1.315   4.142   2.646
 1254SOL     OW 3776   1.593   3.945   2.744
 1254SOL    HW1 3777   1.509   3.944   2.798
 1254SOL    HW2 3778   1.595   4.028   2.688
 1255SOL     OW 3779   0.230   4.352   3.837
 1255SOL    HW1 3780   0.137   4.350   3.874
 1255SOL    HW2 3781   0.231   4.313   3.745
 1256SOL     OW 3782   0.019   4.092   4.371
 1256SOL    HW1 3783  -0.063   4.135   4.410
 1256SOL    HW2 3784  -0.009   4.019   4.308
 1257SOL     OW 3785   1.135   4.427   4.441
 1257SOL    HW1 3786   1.192   4.505   4.416
 1257SOL    HW2 3787   1.075   4.453   4.517
 1258SOL     OW 3788   1.755   4.331   3.955
 1258SOL    HW1 3789   1.743   4.318   3.856
 1258SOL    HW2 3790   1.725   4.250   4.004
 1259SOL     OW 3791   0.685   4.736   4.389
 1259SOL    HW1 3792   0.754   4.720   4.459
 1259SOL    HW2 3793   0.612   4.793   4.427
 1260SOL     OW 3794   1.603   4.171   4.461
 1260SOL    HW1 3795   1.529   4.217   4.411
 1260SOL    HW2 3796   1.654   4.239   4.514
 1261SOL     OW 3797   0.240   4.815   4.610
 1261SOL    HW1 3798   0.254   4.731   4.662
 1261SOL    HW2 3799   0.185   4.879   4.665
 1262SOL     OW 3800   0.122   4.367   4.287
 1262SOL    HW1 3801   0.077   4.279   4.304
 1262SOL    HW2 3802   0.121   4.421   4.371
 1263SOL     OW 3803   0.809   3.728   4.226
 1263SOL    HW1 3804   0.849   3.819   4.217
 1263SOL    HW2 3805   0.709   3.736   4.232
 1264SOL     OW 3806   0.598   4.453   3.994
 1264SOL    HW1 3807   0.622   4.522   3.926
 1264SOL    HW2 3808   0.520   4.486   4.048
 1265SOL     OW 3809   1.281   4.069   4.668
 1265SOL    HW1 3810   1.195   4.019   4.655
 1265SOL    HW2 3811   1.343   4.015   4.724
 1266SOL     OW 3812   1.041   4.425   4.153
 1266SOL    HW1 3813   1.067   4.421   4.249
 1266SOL    HW2 3814   0.956   4.374   4.139
 1267SOL     OW 3815   0.076   4.535   4.513
 1267SOL    HW1 3816   0.175   4.523   4.522
 1267SOL    HW2 3817   0.052   4.630   4.534
 1268SOL     OW 3818   0.865   4.072   3.919
 1268SOL    HW1 3819   0.924   4.135   3.870
 1268SOL    HW2 3820   0.884   3.978   3.890
 1269SOL     OW 3821   0.550   3.920   4.609
 1269SOL    HW1 3822   0.545   3.915   4.709
 1269SOL    HW2 3823   0.552   4.016   4.580
 1270SOL     OW 3824   1.458   4.459   4.452
 1270SOL    HW1 3825   1.453   4.394   4.527
 1270SOL    HW2 3826   1.538   4.518   4.465
 1271SOL     OW 3827   1.400   3.831   4.150
 1271SOL    HW1 3828   1.376   3.794   4.060
 1271SOL    HW2 3829   1.499   3.847   4.154
 1272SOL     OW 3830   0.382   4.424   4.204
 1272SOL    HW1 3831   0.427   4.334   4.201
 1272SOL    HW2 3832   0.288   4.413   4.237
 1273SOL     OW 3833   0.614   3.846   3.841
 1273SOL    HW1 3834   0.712   3.824   3.848
 1273SOL    HW2 3835   0.583   3.829   3.748
 1274SOL     OW 3836   0.539   3.788   4.236
 1274SOL    HW1 3837   0.458   3.789   4.294
 1274SOL    HW2 3838   0.542   3.871   4.181
 1275SOL     OW 3839   0.297   3.759   3.895
 1275SOL    HW1 3840   0.346   3.843   3.874
 1275SOL    HW2 3841   0.359   3.694   3.940
 1276SOL     OW 3842   0.935   3.960   4.204
 1276SOL    HW1 3843   0.887   4.001   4.126
 1276SOL    HW2 3844   1.034   3.958   4.185
 1277SOL     OW 3845   0.459   4.876   4.465
 1277SOL    HW1 3846   0.388   4.849   4.530
 1277SOL    HW2 3847   0.433   4.848   4.372
 1278SOL     OW 3848   1.032   4.273   3.740
 1278SOL    HW1 3849   0.991   4.355   3.701
 1278SOL    HW2 3850   1.096   4.299   3.813
 1279SOL     OW 3851   0.866   4.178   4.366
 1279SOL    HW1 3852   0.834   4.250   4.304
 1279SOL    HW2 3853   0.890   4.097   4.313
 1280SOL     OW 3854   1.017   3.763   4.477
 1280SOL    HW1 3855   0.945   3.768   4.408
 1280SOL    HW2 3856   0.993   3.694   4.546
 1281SOL     OW 3857   1.429   4.897   4.591
 1281SOL    HW1 3858   1.374   4.813   4.584
 1281SOL    HW2 3859   1.455   4.926   4.499
 1282SOL     OW 3860   1.857   4.557   4.101
 1282SOL    HW1 3861   1.899   4.493   4.165
 1282SOL    HW2 3862   1.819   4.506   4.023
 1283SOL     OW 3863   1.390   4.299   3.802
 1283SOL    HW1 3864   1.336   4.278   3.883
 1283SOL    HW2 3865   1.481   4.258   3.811
 1284SOL     OW 3866   0.527   3.980   4.052
 1284SOL    HW1 3867   0.554   3.921   3.977
 1284SOL    HW2 3868   0.527   4.075   4.021
 1285SOL     OW 3869   0.566   4.261   4.589
 1285SOL    HW1 3870   0.578   4.327   4.515
 1285SOL    HW2 3871   0.612   4.295   4.672
 1286SOL     OW 3872   1.582   4.363   4.196
 1286SOL    HW1 3873   1.551   4.424   4.269
 1286SOL    HW2 3874   1.632   4.415   4.127
 1287SOL     OW 3875   1.209   4.249   3.999
 1287SOL    HW1 3876   1.222   4.165   4.053
 1287SOL    HW2 3877   1.180   4.323   4.059
 1288SOL     OW 3878   0.307   3.787   4.342
 1288SOL    HW1 3879   0.296   3.881   4.375
 1288SOL    HW2 3880   0.302   3.724   4.419
 1289SOL     OW 3881   1.622   4.091   4.098
 1289SOL    HW1 3882   1.624   4.015   4.162
 1289SOL    HW2 3883   1.574   4.168   4.138
 1290SOL     OW 3884   1.540   3.998   3.849
 1290SOL    HW1 3885   1.479   3.923   3.872
 1290SOL    HW2 3886   1.562   4.050   3.932
 1291SOL     OW 3887   0.815   4.296   4.049
 1291SOL    HW1 3888   0.822   4.207   4.003
 1291SOL    HW2 3889   0.721   4.330   4.041
 1292SOL     OW 3890   0.473   4.224   3.915
 1292SOL    HW1 3891   0.534   4.304   3.919
 1292SOL    HW2 3892   0.378   4.255   3.922
 1293SOL     OW 3893   1.726   3.859   4.247
 1293SOL    HW1 3894   1.799   3.842   4.180
 1293SOL    HW2 3895   1.695   3.772   4.285
 1294SOL     OW 3896   1.280   4.651   4.396
 1294SOL    HW1 3897   1.340   4.570   4.398
 1294SOL    HW2 3898   1.320   4.720   4.336
 1295SOL     OW 3899   1.841   3.899   4.687
 1295SOL    HW1 3900   1.880   3.814   4.651
 1295SOL    HW2 3901   1.743   3.901   4.668
 1296SOL     OW 3902   0.263   4.050   4.444
 1296SOL    HW1 3903   0.184   4.101   4.410
 1296SOL    HW2 3904   0.254   4.035   4.542
 1297SOL     OW 3905   0.916   4.634   4.015
 1297SOL    HW1 3906   0.979   4.672   3.947
 1297SOL    HW2 3907   0.956   4.551   4.054
 1298SOL     OW 3908   0.075   4.069   3.757
 1298SOL    HW1 3909  -0.017   4.041   3.728
 1298SOL    HW2 3910   0.106   4.146   3.701
 1299SOL     OW 3911   0.072   3.890   4.042
 1299SOL    HW1 3912   0.055   3.973   3.988
 1299SOL    HW2 3913   0.162   3.853   4.020
 1300SOL     OW 3914   1.674   4.607   4.978
 1300SOL    HW1 3915   1.647   4.518   4.941
 1300SOL    HW2 3916   1.675   4.675   4.905
 1301SOL     OW 3917   1.225   4.049   4.173
 1301SOL    HW1 3918   1.290   3.975   4.162
 1301SOL    HW2 3919   1.245   4.099   4.257
 1302SOL     OW 3920   0.594   4.469   4.376
 1302SOL    HW1 3921   0.644   4.554   4.357
 1302SOL    HW2 3922   0.506   4.471   4.328
 1303SOL     OW 3923   0.428   4.148   4.244
 1303SOL    HW1 3924   0.458   4.076   4.182
 1303SOL    HW2 3925   0.389   4.108   4.327
 1304SOL     OW 3926   1.352   3.776   3.892
 1304SOL    HW1 3927   1.387   3.735   3.808
 1304SOL    HW2 3928   1.262   3.738   3.912
 1305SOL     OW 3929   1.300   4.177   4.415
 1305SOL    HW1 3930   1.241   4.257   4.419
 1305SOL    HW2 3931   1.315   4.142   4.508
 1306SOL     OW 3932   2.092   0.628   0.113
 1306SOL    HW1 3933   1.999   0.626   0.150
 1306SOL    HW2 3934   2.093   0.589   0.021
 1307SOL     OW 3935   2.087   0.275   0.996
 1307SOL    HW1 3936   2.122   0.258   1.088
 1307SOL    HW2 3937   1.999   0.230   0.984
 1308SOL     OW 3938   1.881   0.368   0.647
 1308SOL    HW1 3939   1.799   0.411   0.686
 1308SOL    HW2 3940   1.853   0.295   0.584
 1309SOL     OW 3941   2.431   1.275   1.165
 1309SOL    HW1 3942   2.338   1.268   1.128
 1309SOL    HW2 3943   2.442   1.364   1.209
 1310SOL     OW 3944   3.417   1.511   0.703
 1310SOL    HW1 3945   3.360   1.495   0.784
 1310SOL    HW2 3946   3.358   1.521   0.623
 1311SOL     OW 3947   2.997   0.703   0.717
 1311SOL    HW1 3948   3.054   0.781   0.692
 1311SOL    HW2 3949   2.937   0.729   0.793
 1312SOL     OW 3950   3.617   0.607   0.231
 1312SOL    HW1 3951   3.605   0.594   0.132
 1312SOL    HW2 3952   3.587   0.526   0.280
 1313SOL     OW 3953   2.630   1.144   1.023
 1313SOL    HW1 3954   2.552   1.161   1.083
 1313SOL    HW2 3955   2.664   1.231   0.987
 1314SOL     OW 3956   2.712   0.798   1.823
 1314SOL    HW1 3957   2.708   0.874   1.888
 1314SOL    HW2 3958   2.734   0.834   1.732
 1315SOL     OW 3959   2.547   1.012   0.665
 1315SOL    HW1 3960   2.616   0.996   0.735
 1315SOL    HW2 3961   2.474   1.069   0.703
 1316SOL     OW 3962   2.548   1.161   1.803
 1316SOL    HW1 3963   2.608   1.240   1.817
 1316SOL    HW2 3964   2.462   1.192   1.762
 1317SOL     OW 3965   2.197   1.435   1.061
 1317SOL    HW1 3966   2.119   1.404   1.008
 1317SOL    HW2 3967   2.255   1.493   1.004
 1318SOL     OW 3968   3.322   1.505   1.339
 1318SOL    HW1 3969   3.346   1.599   1.365
 1318SOL    HW2 3970   3.306   1.451   1.421
 1319SOL     OW 3971   2.300   0.392   1.499
 1319SOL    HW1 3972   2.382   0.336   1.508
 1319SOL    HW2 3973   2.219   0.334   1.503
 1320SOL     OW 3974   3.465   0.447   0.737
 1320SOL    HW1 3975   3.391   0.493   0.687
 1320SOL    HW2 3976   3.516   0.515   0.790
 1321SOL     OW 3977   2.093   1.713   0.483
 1321SOL    HW1 3978   2.127   1.790   0.537
 1321SOL    HW2 3979   2.137   1.713   0.393
 1322SOL     OW 3980   2.989   1.341   1.690
 1322SOL    HW1 3981   3.036   1.341   1.778
 1322SOL    HW2 3982   2.941   1.254   1.679
 1323SOL     OW 3983   2.092   1.434   0.538
 1323SOL    HW1 3984   2.066   1.530   0.538
 1323SOL    HW2 3985   2.021   1.380   0.583
 1324SOL     OW 3986   2.102   1.091   0.886
 1324SOL    HW1 3987   2.116   1.007   0.938
 1324SOL    HW2 3988   2.047   1.155   0.941
 1325SOL     OW 3989   2.482   1.786   1.439
 1325SOL    HW1 3990   2.390   1.769   1.474
 1325SOL    HW2 3991   2.510   1.878   1.465
 1326SOL     OW 3992   2.468   0.964   0.123
 1326SOL    HW1 3993   2.475   1.048   0.069
 1326SOL    HW2 3994   2.514   0.977   0.211
 1327SOL     OW 3995   3.456   0.114   1.480
 1327SOL    HW1 3996   3.438   0.181   1.408
 1327SOL    HW2 3997   3.453   0.160   1.569
 1328SOL     OW 3998   1.984   0.643   0.563
 1328SOL    HW1 3999   1.939   0.555   0.580
 1328SOL    HW2 4000   1.983   0.697   0.647
 1329SOL     OW 4001   3.704   1.767   0.359
 1329SOL    HW1 4002   3.758   1.738   0.439
 1329SOL    HW2 4003   3.734   1.857   0.330
 1330SOL     OW 4004   1.889   1.596   0.117
 1330SOL    HW1 4005   1.870   1.500   0.138
 1330SOL    HW2 4006   1.856   1.654   0.192
 1331SOL     OW 4007   3.551   0.922   0.612
 1331SOL    HW1 4008   3.646   0.893   0.620
 1331SOL    HW2 4009   3.543   0.987   0.537
 1332SOL     OW 4010   3.503   1.108   0.432
 1332SOL    HW1 4011   3.589   1.110   0.380
 1332SOL    HW2 4012   3.517   1.155   0.520
 1333SOL     OW 4013   1.975   0.737   1.597
 1333SOL    HW1 4014   2.063   0.724   1.642
 1333SOL    HW2 4015   1.962   0.834   1.575
 1334SOL     OW 4016   2.475   1.365   0.726
 1334SOL    HW1 4017   2.426   1.278   0.735
 1334SOL    HW2 4018   2.452   1.408   0.639
 1335SOL     OW 4019   3.155   1.228   1.423
 1335SOL    HW1 4020   3.192   1.155   1.365
 1335SOL    HW2 4021   3.207   1.233   1.508
 1336SOL     OW 4022   2.671   0.004   0.502
 1336SOL    HW1 4023   2.711   0.095   0.493
 1336SOL    HW2 4024   2.571   0.012   0.508
 1337SOL     OW 4025   2.059   0.976   1.264
 1337SOL    HW1 4026   2.148   0.931   1.250
 1337SOL    HW2 4027   1.986   0.911   1.245
 1338SOL     OW 4028   3.387   0.999   0.190
 1338SOL    HW1 4029   3.324   0.923   0.203
 1338SOL    HW2 4030   3.435   1.017   0.276
 1339SOL     OW 4031   3.049   1.792   1.616
 1339SOL    HW1 4032   3.073   1.852   1.540
 1339SOL    HW2 4033   3.056   1.697   1.586
 1340SOL     OW 4034   2.179   0.251   1.801
 1340SOL    HW1 4035   2.250   0.322   1.807
 1340SOL    HW2 4036   2.091   0.290   1.829
 1341SOL     OW 4037   3.328   1.417   0.953
 1341SOL    HW1 4038   3.269   1.423   1.033
 1341SOL    HW2 4039   3.313   1.329   0.907
 1342SOL     OW 4040   3.529   1.714   0.572
 1342SOL    HW1 4041   3.488   1.691   0.484
 1342SOL    HW2 4042   3.511   1.640   0.637
 1343SOL     OW 4043   2.460   0.729   0.270
 1343SOL    HW1 4044   2.484   0.798   0.202
 1343SOL    HW2 4045   2.382   0.762   0.324
 1344SOL     OW 4046   3.143   0.345   0.944
 1344SOL    HW1 4047   3.057   0.295   0.931
 1344SOL    HW2 4048   3.205   0.291   1.000
 1345SOL     OW 4049   3.438   1.662   0.307
 1345SOL    HW1 4050   3.527   1.708   0.310
 1345SOL    HW2 4051   3.417   1.638   0.212
 1346SOL     OW 4052   2.669   0.605   1.465
 1346SOL    HW1 4053   2.622   0.602   1.554
 1346SOL    HW2 4054   2.618   0.550   1.399
 1347SOL     OW 4055   3.256   0.469   1.674
 1347SOL    HW1 4056   3.236   0.512   1.762
 1347SOL    HW2 4057   3.334   0.407   1.683
 1348SOL     OW 4058   2.835   0.890   1.572
 1348SOL    HW1 4059   2.881   0.806   1.543
 1348SOL    HW2 4060   2.779   0.924   1.497
 1349SOL     OW 4061   2.853   0.410   1.242
 1349SOL    HW1 4062   2.776   0.444   1.296
 1349SOL    HW2 4063   2.819   0.359   1.163
 1350SOL     OW 4064   2.903   0.701   0.429
 1350SOL    HW1 4065   2.929   0.697   0.525
 1350SOL    HW2 4066   2.818   0.650   0.415
 1351SOL     OW 4067   1.938   0.811   0.789
 1351SOL    HW1 4068   2.037   0.799   0.798
 1351SOL    HW2 4069   1.914   0.906   0.810
 1352SOL     OW 4070   1.992   1.821   1.571
 1352SOL    HW1 4071   1.982   1.806   1.670
 1352SOL    HW2 4072   1.906   1.857   1.535
 1353SOL     OW 4073   2.727   0.348   0.195
 1353SOL    HW1 4074   2.786   0.411   0.146
 1353SOL    HW2 4075   2.746   0.254   0.166
 1354SOL     OW 4076   3.581   0.585   1.831
 1354SOL    HW1 4077   3.555   0.674   1.795
 1354SOL    HW2 4078   3.579   0.517   1.758
 1355SOL     OW 4079   3.224   1.144   0.545
 1355SOL    HW1 4080   3.307   1.115   0.497
 1355SOL    HW2 4081   3.175   1.211   0.489
 1356SOL     OW 4082   2.412   0.196   0.885
 1356SOL    HW1 4083   2.407   0.191   0.985
 1356SOL    HW2 4084   2.414   0.292   0.856
 1357SOL     OW 4085   2.870   1.456   0.477
 1357SOL    HW1 4086   2.824   1.528   0.425
 1357SOL    HW2 4087   2.866   1.476   0.575
 1358SOL     OW 4088   2.213   1.801   0.853
 1358SOL    HW1 4089   2.263   1.715   0.859
 1358SOL    HW2 4090   2.278   1.878   0.850
 1359SOL     OW 4091   3.657   1.066   0.873
 1359SOL    HW1 4092   3.595   1.051   0.797
 1359SOL    HW2 4093   3.605   1.077   0.958
 1360SOL     OW 4094   3.089   1.550   1.506
 1360SOL    HW1 4095   3.095   1.473   1.570
 1360SOL    HW2 4096   3.037   1.524   1.426
 1361SOL     OW 4097   2.183   0.943   0.242
 1361SOL    HW1 4098   2.265   0.982   0.200
 1361SOL    HW2 4099   2.156   0.861   0.193
 1362SOL     OW 4100   3.320   0.735   0.728
 1362SOL    HW1 4101   3.315   0.670   0.803
 1362SOL    HW2 4102   3.400   0.794   0.741
 1363SOL     OW 4103   2.323   1.266   1.727
 1363SOL    HW1 4104   2.273   1.267   1.641
 1363SOL    HW2 4105   2.260   1.248   1.803
 1364SOL     OW 4106   2.973   1.776   0.237
 1364SOL    HW1 4107   2.913   1.714   0.287
 1364SOL    HW2 4108   3.004   1.732   0.152
 1365SOL     OW 4109   2.064   0.285   1.498
 1365SOL    HW1 4110   1.984   0.345   1.485
 1365SOL    HW2 4111   2.054   0.236   1.584
 1366SOL     OW 4112   3.494   1.377   0.081
 1366SOL    HW1 4113   3.462   1.471   0.071
 1366SOL    HW2 4114   3.418   1.314   0.069
 1367SOL     OW 4115   2.326   1.743   0.323
 1367SOL    HW1 4116   2.359   1.782   0.409
 1367SOL    HW2 4117   2.402   1.736   0.258
 1368SOL     OW 4118   3.262   0.107   0.426
 1368SOL    HW1 4119   3.238   0.070   0.336
 1368SOL    HW2 4120   3.361   0.123   0.430
 1369SOL     OW 4121   2.111   1.785   1.241
 1369SOL    HW1 4122   2.168   1.720   1.291
 1369SOL    HW2 4123   2.095   1.752   1.148
 1370SOL     OW 4124   2.802   1.698   0.904
 1370SOL    HW1 4125   2.882   1.641   0.925
 1370SOL    HW2 4126   2.753   1.658   0.827
 1371SOL     OW 4127   2.244   0.700   0.480
 1371SOL    HW1 4128   2.289   0.610   0.477
 1371SOL    HW2 4129   2.150   0.689   0.513
 1372SOL     OW 4130   3.409   0.222   1.729
 1372SOL    HW1 4131   3.404   0.259   1.821
 1372SOL    HW2 4132   3.337   0.153   1.717
 1373SOL     OW 4133   2.476   0.122   0.117
 1373SOL    HW1 4134   2.574   0.100   0.124
 1373SOL    HW2 4135   2.445   0.105   0.024
 1374SOL     OW 4136   2.643   0.264   1.749
 1374SOL    HW1 4137   2.710   0.203   1.792
 1374SOL    HW2 4138   2.570   0.283   1.814
 1375SOL     OW 4139   2.750   1.514   1.195
 1375SOL    HW1 4140   2.727   1.489   1.101
 1375SOL    HW2 4141   2.811   1.445   1.234
 1376SOL     OW 4142   3.213   0.590   1.433
 1376SOL    HW1 4143   3.241   0.547   1.518
 1376SOL    HW2 4144   3.238   0.686   1.434
 1377SOL     OW 4145   2.665   1.402   0.924
 1377SOL    HW1 4146   2.755   1.416   0.882
 1377SOL    HW2 4147   2.594   1.404   0.853
 1378SOL     OW 4148   2.784   0.503   0.899
 1378SOL    HW1 4149   2.759   0.494   0.803
 1378SOL    HW2 4150   2.832   0.421   0.930
 1379SOL     OW 4151   2.401   0.064   0.512
 1379SOL    HW1 4152   2.320   0.065   0.570
 1379SOL    HW2 4153   2.404   0.147   0.457
 1380SOL     OW 4154   3.296   1.188   0.041
 1380SOL    HW1 4155   3.328   1.112   0.098
 1380SOL    HW2 4156   3.204   1.215   0.071
 1381SOL     OW 4157   2.159   0.035   0.171
 1381SOL    HW1 4158   2.208   0.119   0.150
 1381SOL    HW2 4159   2.221  -0.030   0.216
 1382SOL     OW 4160   2.797   0.236   0.480
 1382SOL    HW1 4161   2.749   0.277   0.402
 1382SOL    HW2 4162   2.896   0.234   0.461
 1383SOL     OW 4163   2.938   0.683   1.464
 1383SOL    HW1 4164   2.858   0.622   1.467
 1383SOL    HW2 4165   3.019   0.630   1.440
 1384SOL     OW 4166   3.089   1.570   0.793
 1384SOL    HW1 4167   3.110   1.644   0.728
 1384SOL    HW2 4168   3.157   1.570   0.866
 1385SOL     OW 4169   2.321   1.152   0.741
 1385SOL    HW1 4170   2.250   1.125   0.806
 1385SOL    HW2 4171   2.295   1.124   0.648
 1386SOL     OW 4172   3.133   1.797   0.591
 1386SOL    HW1 4173   3.177   1.861   0.527
 1386SOL    HW2 4174   3.083   1.849   0.661
 1387SOL     OW 4175   2.894   0.549   0.016
 1387SOL    HW1 4176   2.853   0.631  -0.023
 1387SOL    HW2 4177   2.958   0.575   0.089
 1388SOL     OW 4178   1.940   0.556   1.386
 1388SOL    HW1 4179   2.032   0.555   1.345
 1388SOL    HW2 4180   1.934   0.630   1.453
 1389SOL     OW 4181   2.423   0.222   1.147
 1389SOL    HW1 4182   2.461   0.138   1.184
 1389SOL    HW2 4183   2.335   0.241   1.191
 1390SOL     OW 4184   2.728   0.454   0.642
 1390SOL    HW1 4185   2.696   0.526   0.580
 1390SOL    HW2 4186   2.752   0.373   0.589
 1391SOL     OW 4187   2.879   0.039   0.753
 1391SOL    HW1 4188   2.807   0.044   0.684
 1391SOL    HW2 4189   2.855  -0.030   0.822
 1392SOL     OW 4190   3.291   1.173   0.867
 1392SOL    HW1 4191   3.236   1.089   0.860
 1392SOL    HW2 4192   3.317   1.202   0.775
 1393SOL     OW 4193   3.328   0.590   0.992
 1393SOL    HW1 4194   3.298   0.495   0.999
 1393SOL    HW2 4195   3.401   0.606   1.058
 1394SOL     OW 4196   3.719   0.833   0.377
 1394SOL    HW1 4197   3.761   0.769   0.441
 1394SOL    HW2 4198   3.681   0.782   0.299
 1395SOL     OW 4199   2.350   1.385   0.174
 1395SOL    HW1 4200   2.263   1.370   0.221
 1395SOL    HW2 4201   2.333   1.411   0.079
 1396SOL     OW 4202   3.526   1.280   0.657
 1396SOL    HW1 4203   3.625   1.288   0.671
 1396SOL    HW2 4204   3.481   1.364   0.688
 1397SOL     OW 4205   3.252   0.575   0.078
 1397SOL    HW1 4206   3.198   0.554   0.159
 1397SOL    HW2 4207   3.343   0.534   0.087
 1398SOL     OW 4208   2.389   0.256   0.328
 1398SOL    HW1 4209   2.416   0.197   0.253
 1398SOL    HW2 4210   2.389   0.351   0.297
 1399SOL     OW 4211   3.616   1.223   1.588
 1399SOL    HW1 4212   3.707   1.184   1.575
 1399SOL    HW2 4213   3.624   1.319   1.612
 1400SOL     OW 4214   2.926   1.347   1.340
 1400SOL    HW1 4215   2.846   1.324   1.395
 1400SOL    HW2 4216   3.009   1.321   1.389
 1401SOL     OW 4217   3.454   1.629   1.625
 1401SOL    HW1 4218   3.481   1.663   1.535
 1401SOL    HW2 4219   3.533   1.591   1.671
 1402SOL     OW 4220   2.973   1.195   1.100
 1402SOL    HW1 4221   2.933   1.239   1.181
 1402SOL    HW2 4222   2.932   1.232   1.017
 1403SOL     OW 4223   3.500   1.099   1.079
 1403SOL    HW1 4224   3.505   1.180   1.138
 1403SOL    HW2 4225   3.414   1.101   1.028
 1404SOL     OW 4226   2.777   0.089   1.402
 1404SOL    HW1 4227   2.802   0.069   1.307
 1404SOL    HW2 4228   2.849   0.145   1.444
 1405SOL     OW 4229   2.842   1.116   1.719
 1405SOL    HW1 4230   2.743   1.122   1.729
 1405SOL    HW2 4231   2.865   1.036   1.663
 1406SOL     OW 4232   2.567   1.050   0.368
 1406SOL    HW1 4233   2.553   1.057   0.467
 1406SOL    HW2 4234   2.651   0.999   0.350
 1407SOL     OW 4235   2.272   0.813   1.251
 1407SOL    HW1 4236   2.358   0.825   1.301
 1407SOL    HW2 4237   2.230   0.726   1.278
 1408SOL     OW 4238   3.136   0.386   1.262
 1408SOL    HW1 4239   3.157   0.460   1.326
 1408SOL    HW2 4240   3.047   0.403   1.219
 1409SOL     OW 4241   1.926   1.564   1.331
 1409SOL    HW1 4242   1.880   1.646   1.297
 1409SOL    HW2 4243   2.024   1.583   1.340
 1410SOL     OW 4244   2.229   1.100   0.501
 1410SOL    HW1 4245   2.222   1.183   0.445
 1410SOL    HW2 4246   2.233   1.020   0.441
 1411SOL     OW 4247   2.428   0.537   0.865
 1411SOL    HW1 4248   2.440   0.603   0.791
 1411SOL    HW2 4249   2.474   0.571   0.948
 1412SOL     OW 4250   3.114   1.348   0.388
 1412SOL    HW1 4251   3.164   1.425   0.428
 1412SOL    HW2 4252   3.019   1.350   0.420
 1413SOL     OW 4253   3.134   1.445   1.142
 1413SOL    HW1 4254   3.181   1.458   1.229
 1413SOL    HW2 4255   3.068   1.371   1.151
 1414SOL     OW 4256   3.444   0.639   0.472
 1414SOL    HW1 4257   3.413   0.700   0.545
 1414SOL    HW2 4258   3.494   0.691   0.403
 1415SOL     OW 4259   2.216   1.510   1.329
 1415SOL    HW1 4260   2.195   1.466   1.242
 1415SOL    HW2 4261   2.313   1.536   1.332
 1416SOL     OW 4262   2.264   0.751   1.598
 1416SOL    HW1 4263   2.332   0.806   1.551
 1416SOL    HW2 4264   2.304   0.663   1.625
 1417SOL     OW 4265   3.449   0.779   1.670
 1417SOL    HW1 4266   3.357   0.817   1.665
 1417SOL    HW2 4267   3.509   0.826   1.605
 1418SOL     OW 4268   2.875   0.105   1.770
 1418SOL    HW1 4269   2.881   0.190   1.718
 1418SOL    HW2 4270   2.907   0.029   1.713
 1419SOL     OW 4271   2.366   0.050   1.740
 1419SOL    HW1 4272   2.324  -0.007   1.670
 1419SOL    HW2 4273   2.300   0.119   1.772
 1420SOL     OW 4274   2.435   0.870   1.029
 1420SOL    HW1 4275   2.479   0.959   1.020
 1420SOL    HW2 4276   2.372   0.870   1.106
 1421SOL     OW 4277   3.222   0.862   1.045
 1421SOL    HW1 4278   3.147   0.862   0.979
 1421SOL    HW2 4279   3.259   0.770   1.054
 1422SOL     OW 4280   3.071   0.525   0.275
 1422SOL    HW1 4281   3.084   0.441   0.329
 1422SOL    HW2 4282   3.042   0.599   0.335
 1423SOL     OW 4283   2.169   0.213   1.231
 1423SOL    HW1 4284   2.146   0.250   1.321
 1423SOL    HW2 4285   2.139   0.118   1.225
 1424SOL     OW 4286   1.899   1.310   1.282
 1424SOL    HW1 4287   1.952   1.261   1.350
 1424SOL    HW2 4288   1.921   1.408   1.287
 1425SOL     OW 4289   2.594   0.634   1.064
 1425SOL    HW1 4290   2.653   0.608   0.988
 1425SOL    HW2 4291   2.566   0.730   1.053
 1426SOL     OW 4292   3.590   0.935   1.854
 1426SOL    HW1 4293   3.544   0.928   1.765
 1426SOL    HW2 4294   3.528   0.979   1.920
 1427SOL     OW 4295   2.169   0.063   0.618
 1427SOL    HW1 4296   2.158   0.157   0.651
 1427SOL    HW2 4297   2.164   0.000   0.695
 1428SOL     OW 4298   3.484   0.367   0.374
 1428SOL    HW1 4299   3.486   0.291   0.438
 1428SOL    HW2 4300   3.436   0.444   0.414
 1429SOL     OW 4301   2.885   0.766   0.966
 1429SOL    HW1 4302   2.900   0.787   1.062
 1429SOL    HW2 4303   2.855   0.671   0.957
 1430SOL     OW 4304   2.842   1.573   1.700
 1430SOL    HW1 4305   2.822   1.617   1.612
 1430SOL    HW2 4306   2.881   1.482   1.684
 1431SOL     OW 4307   3.721   1.518   1.605
 1431SOL    HW1 4308   3.735   1.545   1.510
 1431SOL    HW2 4309   3.804   1.540   1.658
 1432SOL     OW 4310   2.212   0.898   1.804
 1432SOL    HW1 4311   2.288   0.942   1.852
 1432SOL    HW2 4312   2.247   0.851   1.722
 1433SOL     OW 4313   3.402   0.274   0.125
 1433SOL    HW1 4314   3.341   0.199   0.148
 1433SOL    HW2 4315   3.424   0.326   0.208
 1434SOL     OW 4316   3.165   0.838   0.042
 1434SOL    HW1 4317   3.199   0.745   0.057
 1434SOL    HW2 4318   3.183   0.865  -0.053
 1435SOL     OW 4319   2.930   1.333   0.849
 1435SOL    HW1 4320   2.937   1.249   0.794
 1435SOL    HW2 4321   2.992   1.402   0.813
 1436SOL     OW 4322   2.181   0.810   0.949
 1436SOL    HW1 4323   2.274   0.846   0.954
 1436SOL    HW2 4324   2.175   0.725   1.001
 1437SOL     OW 4325   2.201   0.509   1.006
 1437SOL    HW1 4326   2.149   0.426   0.989
 1437SOL    HW2 4327   2.278   0.514   0.942
 1438SOL     OW 4328   3.000   0.380   1.678
 1438SOL    HW1 4329   2.955   0.443   1.742
 1438SOL    HW2 4330   3.093   0.411   1.661
 1439SOL     OW 4331   3.022   0.207   1.477
 1439SOL    HW1 4332   3.022   0.271   1.554
 1439SOL    HW2 4333   3.050   0.255   1.394
 1440SOL     OW 4334   1.870   1.326   0.200
 1440SOL    HW1 4335   1.777   1.347   0.169
 1440SOL    HW2 4336   1.880   1.227   0.213
 1441SOL     OW 4337   1.950   1.801   0.927
 1441SOL    HW1 4338   1.908   1.715   0.900
 1441SOL    HW2 4339   2.044   1.804   0.893
 1442SOL     OW 4340   2.366   1.568   0.910
 1442SOL    HW1 4341   2.432   1.642   0.919
 1442SOL    HW2 4342   2.410   1.489   0.868
 1443SOL     OW 4343   2.864   0.796   1.238
 1443SOL    HW1 4344   2.905   0.764   1.324
 1443SOL    HW2 4345   2.768   0.769   1.235
 1444SOL     OW 4346   1.902   0.544   1.114
 1444SOL    HW1 4347   1.987   0.511   1.073
 1444SOL    HW2 4348   1.915   0.559   1.212
 1445SOL     OW 4349   2.051   0.520   1.722
 1445SOL    HW1 4350   2.110   0.480   1.652
 1445SOL    HW2 4351   1.993   0.591   1.681
 1446SOL     OW 4352   3.231   0.950   1.660
 1446SOL    HW1 4353   3.270   1.039   1.680
 1446SOL    HW2 4354   3.241   0.930   1.563
 1447SOL     OW 4355   2.677   0.572   0.325
 1447SOL    HW1 4356   2.684   0.483   0.279
 1447SOL    HW2 4357   2.583   0.606   0.317
 1448SOL     OW 4358   3.519   0.604   1.206
 1448SOL    HW1 4359   3.481   0.535   1.268
 1448SOL    HW2 4360   3.601   0.568   1.162
 1449SOL     OW 4361   2.114   1.564   1.744
 1449SOL    HW1 4362   2.084   1.621   1.820
 1449SOL    HW2 4363   2.107   1.467   1.770
 1450SOL     OW 4364   2.533   0.464   1.269
 1450SOL    HW1 4365   2.499   0.375   1.239
 1450SOL    HW2 4366   2.559   0.518   1.189
 1451SOL     OW 4367   2.792   1.678   1.465
 1451SOL    HW1 4368   2.768   1.660   1.370
 1451SOL    HW2 4369   2.822   1.772   1.475
 1452SOL     OW 4370   2.335   0.500   0.191
 1452SOL    HW1 4371   2.396   0.580   0.195
 1452SOL    HW2 4372   2.240   0.531   0.198
 1453SOL     OW 4373   2.021   1.137   1.466
 1453SOL    HW1 4374   2.043   1.076   1.542
 1453SOL    HW2 4375   2.031   1.088   1.380
 1454SOL     OW 4376   3.209   1.059   1.234
 1454SOL    HW1 4377   3.233   0.996   1.160
 1454SOL    HW2 4378   3.119   1.099   1.216
 1455SOL     OW 4379   3.164   0.855   0.309
 1455SOL    HW1 4380   3.078   0.824   0.351
 1455SOL    HW2 4381   3.160   0.841   0.210
 1456SOL     OW 4382   3.621   1.747   1.154
 1456SOL    HW1 4383   3.682   1.777   1.081
 1456SOL    HW2 4384   3.583   1.658   1.132
 1457SOL     OW 4385   3.114   1.731   1.128
 1457SOL    HW1 4386   3.198   1.736   1.074
 1457SOL    HW2 4387   3.091   1.635   1.146
 1458SOL     OW 4388   1.945   1.258   1.022
 1458SOL    HW1 4389   1.940   1.257   1.122
 1458SOL    HW2 4390   1.862   1.217   0.984
 1459SOL     OW 4391   2.550   1.662   1.716
 1459SOL    HW1 4392   2.494   1.743   1.725
 1459SOL    HW2 4393   2.602   1.666   1.630
 1460SOL     OW 4394   2.765   0.086   0.133
 1460SOL    HW1 4395   2.816   0.087   0.047
 1460SOL    HW2 4396   2.821   0.044   0.204
 1461SOL     OW 4397   3.588   0.135   0.523
 1461SOL    HW1 4398   3.661   0.118   0.456
 1461SOL    HW2 4399   3.557   0.048   0.561
 1462SOL     OW 4400   3.250   1.573   0.477
 1462SOL    HW1 4401   3.317   1.585   0.403
 1462SOL    HW2 4402   3.210   1.662   0.500
 1463SOL     OW 4403   1.992   1.794   1.851
 1463SOL    HW1 4404   1.951   1.720   1.904
 1463SOL    HW2 4405   2.056   1.845   1.909
 1464SOL     OW 4406   3.142   0.927   0.672
 1464SOL    HW1 4407   3.202   0.846   0.674
 1464SOL    HW2 4408   3.182   0.996   0.612
 1465SOL     OW 4409   2.692   1.273   1.422
 1465SOL    HW1 4410   2.687   1.306   1.517
 1465SOL    HW2 4411   2.606   1.292   1.376
 1466SOL     OW 4412   2.534   1.616   0.154
 1466SOL    HW1 4413   2.543   1.626   0.055
 1466SOL    HW2 4414   2.494   1.527   0.175
 1467SOL     OW 4415   3.512   1.720   1.394
 1467SOL    HW1 4416   3.565   1.730   1.310
 1467SOL    HW2 4417   3.485   1.810   1.428
 1468SOL     OW 4418   3.703   0.175   0.963
 1468SOL    HW1 4419   3.742   0.090   0.927
 1468SOL    HW2 4420   3.605   0.177   0.944
 1469SOL     OW 4421   2.125   0.326   0.720
 1469SOL    HW1 4422   2.046   0.377   0.686
 1469SOL    HW2 4423   2.116   0.311   0.818
 1470SOL     OW 4424   3.056   1.612   0.031
 1470SOL    HW1 4425   3.062   1.519   0.068
 1470SOL    HW2 4426   2.997   1.612  -0.049
 1471SOL     OW 4427   2.684   1.002   1.372
 1471SOL    HW1 4428   2.724   1.001   1.280
 1471SOL    HW2 4429   2.694   1.094   1.412
 1472SOL     OW 4430   2.778   0.910   0.291
 1472SOL    HW1 4431   2.841   0.948   0.223
 1472SOL    HW2 4432   2.818   0.827   0.330
 1473SOL     OW 4433   3.366   1.607   0.044
 1473SOL    HW1 4434   3.274   1.644   0.051
 1473SOL    HW2 4435   3.404   1.627  -0.046
 1474SOL     OW 4436   2.234   1.288   1.490
 1474SOL    HW1 4437   2.221   1.381   1.456
 1474SOL    HW2 4438   2.150   1.236   1.477
 1475SOL     OW 4439   3.476   1.292   1.289
 1475SOL    HW1 4440   3.536   1.295   1.369
 1475SOL    HW2 4441   3.401   1.356   1.302
 1476SOL     OW 4442   2.901   1.098   0.696
 1476SOL    HW1 4443   2.831   1.051   0.750
 1476SOL    HW2 4444   2.960   1.030   0.653
 1477SOL     OW 4445   2.876   0.236   0.971
 1477SOL    HW1 4446   2.868   0.200   0.878
 1477SOL    HW2 4447   2.874   0.160   1.036
 1478SOL     OW 4448   2.452   1.487   0.491
 1478SOL    HW1 4449   2.494   1.429   0.421
 1478SOL    HW2 4450   2.408   1.566   0.447
 1479SOL     OW 4451   3.571   0.385   1.381
 1479SOL    HW1 4452   3.644   0.454   1.385
 1479SOL    HW2 4453   3.599   0.310   1.322
 1480SOL     OW 4454   2.117   1.348   0.290
 1480SOL    HW1 4455   2.021   1.349   0.263
 1480SOL    HW2 4456   2.129   1.401   0.374
 1481SOL     OW 4457   1.967   1.013   1.726
 1481SOL    HW1 4458   1.890   0.980   1.780
 1481SOL    HW2 4459   2.052   0.983   1.768
 1482SOL     OW 4460   2.534   0.203   1.489
 1482SOL    HW1 4461   2.624   0.187   1.449
 1482SOL    HW2 4462   2.542   0.208   1.588
 1483SOL     OW 4463   3.302   0.856   1.398
 1483SOL    HW1 4464   3.245   0.908   1.335
 1483SOL    HW2 4465   3.398   0.868   1.374
 1484SOL     OW 4466   1.934   0.166   0.318
 1484SOL    HW1 4467   1.917   0.249   0.264
 1484SOL    HW2 4468   2.024   0.129   0.296
 1485SOL     OW 4469   3.045   1.335   0.119
 1485SOL    HW1 4470   2.946   1.324   0.121
 1485SOL    HW2 4471   3.079   1.350   0.212
 1486SOL     OW 4472   2.475   0.842   1.431
 1486SOL    HW1 4473   2.531   0.923   1.414
 1486SOL    HW2 4474   2.534   0.762   1.434
 1487SOL     OW 4475   3.355   1.767   0.959
 1487SOL    HW1 4476   3.388   1.831   0.890
 1487SOL    HW2 4477   3.421   1.761   1.034
 1488SOL     OW 4478   2.578   0.565   1.708
 1488SOL    HW1 4479   2.597   0.630   1.782
 1488SOL    HW2 4480   2.638   0.485   1.717
 1489SOL     OW 4481   3.312   1.220   1.633
 1489SOL    HW1 4482   3.303   1.210   1.732
 1489SOL    HW2 4483   3.408   1.213   1.607
 1490SOL     OW 4484   2.252   1.741   1.560
 1490SOL    HW1 4485   2.161   1.782   1.558
 1490SOL    HW2 4486   2.245   1.647   1.592
 1491SOL     OW 4487   3.536   0.883   1.254
 1491SOL    HW1 4488   3.509   0.794   1.217
 1491SOL    HW2 4489   3.537   0.951   1.181
 1492SOL     OW 4490   3.087   0.325   0.449
 1492SOL    HW1 4491   3.152   0.251   0.438
 1492SOL    HW2 4492   3.107   0.375   0.533
 1493SOL     OW 4493   2.456   0.745   0.652
 1493SOL    HW1 4494   2.506   0.830   0.633
 1493SOL    HW2 4495   2.368   0.747   0.604
 1494SOL     OW 4496   3.639   0.342   1.642
 1494SOL    HW1 4497   3.622   0.373   1.548
 1494SOL    HW2 4498   3.555   0.305   1.680
 1495SOL     OW 4499   3.592   0.934   1.517
 1495SOL    HW1 4500   3.630   1.025   1.532
 1495SOL    HW2 4501   3.584   0.917   1.418
 1496SOL     OW 4502   2.721   1.374   0.016
 1496SOL    HW1 4503   2.675   1.389   0.104
 1496SOL    HW2 4504   2.765   1.459  -0.014
 1497SOL     OW 4505   2.523   1.790   0.953
 1497SOL    HW1 4506   2.477   1.878   0.940
 1497SOL    HW2 4507   2.622   1.802   0.946
 1498SOL     OW 4508   2.721   0.956   0.861
 1498SOL    HW1 4509   2.775   0.887   0.909
 1498SOL    HW2 4510   2.689   1.025   0.927
 1499SOL     OW 4511   2.945   0.984   0.087
 1499SOL    HW1 4512   2.922   1.037   0.005
 1499SOL    HW2 4513   3.026   0.928   0.068
 1500SOL     OW 4514   3.723   1.569   0.851
 1500SOL    HW1 4515   3.652   1.557   0.781
 1500SOL    HW2 4516   3.724   1.490   0.911
 1501SOL     OW 4517   2.083   1.314   1.844
 1501SOL    HW1 4518   2.018   1.241   1.823
 1501SOL    HW2 4519   2.087   1.328   1.942
 1502SOL     OW 4520   1.941   1.240   0.653
 1502SOL    HW1 4521   1.940   1.193   0.741
 1502SOL    HW2 4522   2.023   1.212   0.602
 1503SOL     OW 4523   2.534   1.391   1.624
 1503SOL    HW1 4524   2.456   1.341   1.662
 1503SOL    HW2 4525   2.531   1.486   1.655
 1504SOL     OW 4526   3.686   0.192   1.227
 1504SOL    HW1 4527   3.682   0.102   1.271
 1504SOL    HW2 4528   3.689   0.181   1.128
 1505SOL     OW 4529   2.290   0.424   0.520
 1505SOL    HW1 4530   2.320   0.352   0.458
 1505SOL    HW2 4531   2.251   0.384   0.603
 1506SOL     OW 4532   3.567   1.487   1.104
 1506SOL    HW1 4533   3.474   1.462   1.077
 1506SOL    HW2 4534   3.593   1.437   1.186
 1507SOL     OW 4535   2.179   0.547   1.280
 1507SOL    HW1 4536   2.217   0.488   1.352
 1507SOL    HW2 4537   2.219   0.521   1.192
 1508SOL     OW 4538   2.674   1.586   0.687
 1508SOL    HW1 4539   2.706   1.596   0.593
 1508SOL    HW2 4540   2.595   1.524   0.689
 1509SOL     OW 4541   3.286   0.214   1.112
 1509SOL    HW1 4542   3.338   0.149   1.167
 1509SOL    HW2 4543   3.237   0.277   1.173
 1510SOL     OW 4544   2.863   0.034   1.154
 1510SOL    HW1 4545   2.800  -0.038   1.123
 1510SOL    HW2 4546   2.956  -0.002   1.154
 1511SOL     OW 4547   2.632   1.330   0.301
 1511SOL    HW1 4548   2.586   1.243   0.318
 1511SOL    HW2 4549   2.723   1.327   0.342
 1512SOL     OW 4550   2.480   1.567   1.284
 1512SOL    HW1 4551   2.475   1.649   1.341
 1512SOL    HW2 4552   2.569   1.564   1.239
 1513SOL     OW 4553   3.214   0.052   0.168
 1513SOL    HW1 4554   3.249   0.011   0.084
 1513SOL    HW2 4555   3.124   0.014   0.188
 1514SOL     OW 4556   3.162   0.453   0.691
 1514SOL    HW1 4557   3.103   0.533   0.695
 1514SOL    HW2 4558   3.177   0.418   0.784
 1515SOL     OW 4559   3.455   0.221   0.882
 1515SOL    HW1 4560   3.371   0.220   0.936
 1515SOL    HW2 4561   3.457   0.304   0.826
 1516SOL     OW 4562   1.901   1.077   0.300
 1516SOL    HW1 4563   2.000   1.066   0.291
 1516SOL    HW2 4564   1.861   0.991   0.332
 1517SOL     OW 4565   2.737   1.646   0.337
 1517SOL    HW1 4566   2.660   1.611   0.283
 1517SOL    HW2 4567   2.705   1.717   0.399
 1518SOL     OW 4568   2.092   0.628   1.975
 1518SOL    HW1 4569   1.999   0.626   2.012
 1518SOL    HW2 4570   2.093   0.589   1.883
 1519SOL     OW 4571   2.087   0.275   2.858
 1519SOL    HW1 4572   2.122   0.258   2.950
 1519SOL    HW2 4573   1.999   0.230   2.846
 1520SOL     OW 4574   1.881   0.368   2.509
 1520SOL    HW1 4575   1.799   0.411   2.548
 1520SOL    HW2 4576   1.853   0.295   2.446
 1521SOL     OW 4577   2.431   1.275   3.027
 1521SOL    HW1 4578   2.338   1.268   2.990
 1521SOL    HW2 4579   2.442   1.364   3.071
 1522SOL     OW 4580   3.417   1.511   2.565
 1522SOL    HW1 4581   3.360   1.495   2.646
 1522SOL    HW2 4582   3.358   1.521   2.485
 1523SOL     OW 4583   2.997   0.703   2.579
 1523SOL    HW1 4584   3.054   0.781   2.554
 1523SOL    HW2 4585   2.937   0.729   2.655
 1524SOL     OW 4586   3.617   0.607   2.093
 1524SOL    HW1 4587   3.605   0.594   1.994
 1524SOL    HW2 4588   3.587   0.526   2.142
 1525SOL     OW 4589   2.630   1.144   2.885
 1525SOL    HW1 4590   2.552   1.161   2.945
 1525SOL    HW2 4591   2.664   1.231   2.849
 1526SOL     OW 4592   2.712   0.798   3.685
 1526SOL    HW1 4593   2.708   0.874   3.750
 1526SOL    HW2 4594   2.734   0.834   3.594
 1527SOL     OW 4595   2.547   1.012   2.527
 1527SOL    HW1 4596   2.616   0.996   2.597
 1527SOL    HW2 4597   2.474   1.069   2.565
 1528SOL     OW 4598   2.548   1.161   3.665
 1528SOL    HW1 4599   2.608   1.240   3.679
 1528SOL    HW2 4600   2.462   1.192   3.624
 1529SOL     OW 4601   2.197   1.435   2.923
 1529SOL    HW1 4602   2.119   1.404   2.870
 1529SOL    HW2 4603   2.255   1.493   2.866
 1530SOL     OW 4604   3.322   1.505   3.201
 1530SOL    HW1 4605   3.346   1.599   3.227
 1530SOL    HW2 4606   3.306   1.451   3.283
 1531SOL     OW 4607   2.300   0.392   3.361
 1531SOL    HW1 4608   2.382   0.336   3.370
 1531SOL    HW2 4609   2.219   0.334   3.365
 1532SOL     OW 4610   3.465   0.447   2.599
 1532SOL    HW1 4611   3.391   0.493   2.549
 1532SOL    HW2 4612   3.516   0.515   2.652
 1533SOL     OW 4613   2.093   1.713   2.345
 1533SOL    HW1 4614   2.127   1.790   2.399
 1533SOL    HW2 4615   2.137   1.713   2.255
 1534SOL     OW 4616   2.989   1.341   3.552
 1534SOL    HW1 4617   3.036   1.341   3.640
 1534SOL    HW2 4618   2.941   1.254   3.541
 1535SOL     OW 4619   2.092   1.434   2.400
 1535SOL    HW1 4620   2.066   1.530   2.400
 1535SOL    HW2 4621   2.021   1.380   2.445
 1536SOL     OW 4622   2.102   1.091   2.748
 1536SOL    HW1 4623   2.116   1.007   2.800
 1536SOL    HW2 4624   2.047   1.155   2.803
 1537SOL     OW 4625   2.482   1.786   3.301
 1537SOL    HW1 4626   2.390   1.769   3.336
 1537SOL    HW2 4627   2.510   1.878   3.327
 1538SOL     OW 4628   2.468   0.964   1.985
 1538SOL    HW1 4629   2.475   1.048   1.931
 1538SOL    HW2 4630   2.514   0.977   2.073
 1539SOL     OW 4631   3.456   0.114   3.342
 1539SOL    HW1 4632   3.438   0.181   3.270
 1539SOL    HW2 4633   3.453   0.160   3.431
 1540SOL     OW 4634   1.984   0.643   2.425
 1540SOL    HW1 4635   1.939   0.555   2.442
 1540SOL    HW2 4636   1.983   0.697   2.509
 1541SOL     OW 4637   3.704   1.767   2.221
 1541SOL    HW1 4638   3.758   1.738   2.301
 1541SOL    HW2 4639   3.734   1.857   2.192
 1542SOL     OW 4640   1.889   1.596   1.979
 1542SOL    HW1 4641   1.870   1.500   2.000
 1542SOL    HW2 4642   1.856   1.654   2.054
 1543SOL     OW 4643   3.551   0.922   2.474
 1543SOL    HW1 4644   3.646   0.893   2.482
 1543SOL    HW2 4645   3.543   0.987   2.399
 1544SOL     OW 4646   3.503   1.108   2.294
 1544SOL    HW1 4647   3.589   1.110   2.242
 1544SOL    HW2 4648   3.517   1.155   2.382
 1545SOL     OW 4649   1.975   0.737   3.459
 1545SOL    HW1 4650   2.063   0.724   3.504
 1545SOL    HW2 4651   1.962   0.834   3.437
 1546SOL     OW 4652   2.475   1.365   2.588
 1546SOL    HW1 4653   2.426   1.278   2.597
 1546SOL    HW2 4654   2.452   1.408   2.501
 1547SOL     OW 4655   3.155   1.228   3.285
 1547SOL    HW1 4656   3.192   1.155   3.227
 1547SOL    HW2 4657   3.207   1.233   3.370
 1548SOL     OW 4658   2.671   0.004   2.364
 1548SOL    HW1 4659   2.711   0.095   2.355
 1548SOL    HW2 4660   2.571   0.012   2.370
 1549SOL     OW 4661   2.059   0.976   3.126
 1549SOL    HW1 4662   2.148   0.931   3.112
 1549SOL    HW2 4663   1.986   0.911   3.107
 1550SOL     OW 4664   3.387   0.999   2.052
 1550SOL    HW1 4665   3.324   0.923   2.065
 1550SOL    HW2 4666   3.435   1.017   2.138
 1551SOL     OW 4667   3.049   1.792   3.478
 1551SOL    HW1 4668   3.073   1.852   3.402
 1551SOL    HW2 4669   3.056   1.697   3.448
 1552SOL     OW 4670   2.179   0.251   3.663
 1552SOL    HW1 4671   2.250   0.322   3.669
 1552SOL    HW2 4672   2.091   0.290   3.691
 1553SOL     OW 4673   3.328   1.417   2.815
 1553SOL    HW1 4674   3.269   1.423   2.895
 1553SOL    HW2 4675   3.313   1.329   2.769
 1554SOL     OW 4676   3.529   1.714   2.434
 1554SOL    HW1 4677   3.488   1.691   2.346
 1554SOL    HW2 4678   3.511   1.640   2.499
 1555SOL     OW 4679   2.460   0.729   2.132
 1555SOL    HW1 4680   2.484   0.798   2.064
 1555SOL    HW2 4681   2.382   0.762   2.186
 1556SOL     OW 4682   3.143   0.345   2.806
 1556SOL    HW1 4683   3.057   0.295   2.793
 1556SOL    HW2 4684   3.205   0.291   2.862
 1557SOL     OW 4685   3.438   1.662   2.169
 1557SOL    HW1 4686   3.527   1.708   2.172
 1557SOL    HW2 4687   3.417   1.638   2.074
 1558SOL     OW 4688   2.669   0.605   3.327
 1558SOL    HW1 4689   2.622   0.602   3.416
 1558SOL    HW2 4690   2.618   0.550   3.261
 1559SOL     OW 4691   3.256   0.469   3.536
 1559SOL    HW1 4692   3.236   0.512   3.624
 1559SOL    HW2 4693   3.334   0.407   3.545
 1560SOL     OW 4694   2.835   0.890   3.434
 1560SOL    HW1 4695   2.881   0.806   3.405
 1560SOL    HW2 4696   2.779   0.924   3.359
 1561SOL     OW 4697   2.853   0.410   3.104
 1561SOL    HW1 4698   2.776   0.444   3.158
 1561SOL    HW2 4699   2.819   0.359   3.025
 1562SOL     OW 4700   2.903   0.701   2.291
 1562SOL    HW1 4701   2.929   0.697   2.387
 1562SOL    HW2 4702   2.818   0.650   2.277
 1563SOL     OW 4703   1.938   0.811   2.651
 1563SOL    HW1 4704   2.037   0.799   2.660
 1563SOL    HW2 4705   1.914   0.906   2.672
 1564SOL     OW 4706   1.992   1.821   3.433
 1564SOL    HW1 4707   1.982   1.806   3.532
 1564SOL    HW2 4708   1.906   1.857   3.397
 1565SOL     OW 4709   2.727   0.348   2.057
 1565SOL    HW1 4710   2.786   0.411   2.008
 1565SOL    HW2 4711   2.746   0.254   2.028
 1566SOL     OW 4712   3.581   0.585   3.693
 1566SOL    HW1 4713   3.555   0.674   3.657
 1566SOL    HW2 4714   3.579   0.517   3.620
 1567SOL     OW 4715   3.224   1.144   2.407
 1567SOL    HW1 4716   3.307   1.115   2.359
 1567SOL    HW2 4717   3.175   1.211   2.351
 1568SOL     OW 4718   2.412   0.196   2.747
 1568SOL    HW1 4719   2.407   0.191   2.847
 1568SOL    HW2 4720   2.414   0.292   2.718
 1569SOL     OW 4721   2.870   1.456   2.339
 1569SOL    HW1 4722   2.824   1.528   2.287
 1569SOL    HW2 4723   2.866   1.476   2.437
 1570SOL     OW 4724   2.213   1.801   2.715
 1570SOL    HW1 4725   2.263   1.715   2.721
 1570SOL    HW2 4726   2.278   1.878   2.712
 1571SOL     OW 4727   3.657   1.066   2.735
 1571SOL    HW1 4728   3.595   1.051   2.659
 1571SOL    HW2 4729   3.605   1.077   2.820
 1572SOL     OW 4730   3.089   1.550   3.368
 1572SOL    HW1 4731   3.095   1.473   3.432
 1572SOL    HW2 4732   3.037   1.524   3.288
 1573SOL     OW 4733   2.183   0.943   2.104
 1573SOL    HW1 4734   2.265   0.982   2.062
 1573SOL    HW2 4735   2.156   0.861   2.055
 1574SOL     OW 4736   3.320   0.735   2.590
 1574SOL    HW1 4737   3.315   0.670   2.665
 1574SOL    HW2 4738   3.400   0.794   2.603
 1575SOL     OW 4739   2.323   1.266   3.589
 1575SOL    HW1 4740   2.273   1.267   3.503
 1575SOL    HW2 4741   2.260   1.248   3.665
 1576SOL     OW 4742   2.973   1.776   2.099
 1576SOL    HW1 4743   2.913   1.714   2.149
 1576SOL    HW2 4744   3.004   1.732   2.014
 1577SOL     OW 4745   2.064   0.285   3.360
 1577SOL    HW1 4746   1.984   0.345   3.347
 1577SOL    HW2 4747   2.054   0.236   3.446
 1578SOL     OW 4748   3.494   1.377   1.943
 1578SOL    HW1 4749   3.462   1.471   1.933
 1578SOL    HW2 4750   3.418   1.314   1.931
 1579SOL     OW 4751   2.326   1.743   2.185
 1579SOL    HW1 4752   2.359   1.782   2.271
 1579SOL    HW2 4753   2.402   1.736   2.120
 1580SOL     OW 4754   3.262   0.107   2.288
 1580SOL    HW1 4755   3.238   0.070   2.198
 1580SOL    HW2 4756   3.361   0.123   2.292
 1581SOL     OW 4757   2.111   1.785   3.103
 1581SOL    HW1 4758   2.168   1.720   3.153
 1581SOL    HW2 4759   2.095   1.752   3.010
 1582SOL     OW 4760   2.802   1.698   2.766
 1582SOL    HW1 4761   2.882   1.641   2.787
 1582SOL    HW2 4762   2.753   1.658   2.689
 1583SOL     OW 4763   2.244   0.700   2.342
 1583SOL    HW1 4764   2.289   0.610   2.339
 1583SOL    HW2 4765   2.150   0.689   2.375
 1584SOL     OW 4766   3.409   0.222   3.591
 1584SOL    HW1 4767   3.404   0.259   3.683
 1584SOL    HW2 4768   3.337   0.153   3.579
 1585SOL     OW 4769   2.476   0.122   1.979
 1585SOL    HW1 4770   2.574   0.100   1.986
 1585SOL    HW2 4771   2.445   0.105   1.886
 1586SOL     OW 4772   2.643   0.264   3.611
 1586SOL    HW1 4773   2.710   0.203   3.654
 1586SOL    HW2 4774   2.570   0.283   3.676
 1587SOL     OW 4775   2.750   1.514   3.057
 1587SOL    HW1 4776   2.727   1.489   2.963
 1587SOL    HW2 4777   2.811   1.445   3.096
 1588SOL     OW 4778   3.213   0.590   3.295
 1588SOL    HW1 4779   3.241   0.547   3.380
 1588SOL    HW2 4780   3.238   0.686   3.296
 1589SOL     OW 4781   2.665   1.402   2.786
 1589SOL    HW1 4782   2.755   1.416   2.744
 1589SOL    HW2 4783   2.594   1.404   2.715
 1590SOL     OW 4784   2.784   0.503   2.761
 1590SOL    HW1 4785   2.759   0.494   2.665
 1590SOL    HW2 4786   2.832   0.421   2.792
 1591SOL     OW 4787   2.401   0.064   2.374
 1591SOL    HW1 4788   2.320   0.065   2.432
 1591SOL    HW2 4789   2.404   0.147   2.319
 1592SOL     OW 4790   3.296   1.188   1.903
 1592SOL    HW1 4791   3.328   1.112   1.960
 1592SOL    HW2 4792   3.204   1.215   1.933
 1593SOL     OW 4793   2.159   0.035   2.033
 1593SOL    HW1 4794   2.208   0.119   2.012
 1593SOL    HW2 4795   2.221  -0.030   2.078
 1594SOL     OW 4796   2.797   0.236   2.342
 1594SOL    HW1 4797   2.749   0.277   2.264
 1594SOL    HW2 4798   2.896   0.234   2.323
 1595SOL     OW 4799   2.938   0.683   3.326
 1595SOL    HW1 4800   2.858   0.622   3.329
 1595SOL    HW2 4801   3.019   0.630   3.302
 1596SOL     OW 4802   3.089   1.570   2.655
 1596SOL    HW1 4803   3.110   1.644   2.590
 1596SOL    HW2 4804   3.157   1.570   2.728
 1597SOL     OW 4805   2.321   1.152   2.603
 1597SOL    HW1 4806   2.250   1.125   2.668
 1597SOL    HW2 4807   2.295   1.124   2.510
 1598SOL     OW 4808   3.133   1.797   2.453
 1598SOL    HW1 4809   3.177   1.861   2.389
 1598SOL    HW2 4810   3.083   1.849   2.523
 1599SOL     OW 4811   2.894   0.549   1.878
 1599SOL    HW1 4812   2.853   0.631   1.839
 1599SOL    HW2 4813   2.958   0.575   1.951
 1600SOL     OW 4814   1.940   0.556   3.248
 1600SOL    HW1 4815   2.032   0.555   3.207
 1600SOL    HW2 4816   1.934   0.630   3.315
 1601SOL     OW 4817   2.423   0.222   3.009
 1601SOL    HW1 4818   2.461   0.138   3.046
 1601SOL    HW2 4819   2.335   0.241   3.053
 1602SOL     OW 4820   2.728   0.454   2.504
 1602SOL    HW1 4821   2.696   0.526   2.442
 1602SOL    HW2 4822   2.752   0.373   2.451
 1603SOL     OW 4823   2.879   0.039   2.615
 1603SOL    HW1 4824   2.807   0.044   2.546
 1603SOL    HW2 4825   2.855  -0.030   2.684
 1604SOL     OW 4826   3.291   1.173   2.729
 1604SOL    HW1 4827   3.236   1.089   2.722
 1604SOL    HW2 4828   3.317   1.202   2.637
 1605SOL     OW 4829   3.328   0.590   2.854
 1605SOL    HW1 4830   3.298   0.495   2.861
 1605SOL    HW2 4831   3.401   0.606   2.920
 1606SOL     OW 4832   3.719   0.833   2.239
 1606SOL    HW1 4833   3.761   0.769   2.303
 1606SOL    HW2 4834   3.681   0.782   2.161
 1607SOL     OW 4835   2.350   1.385   2.036
 1607SOL    HW1 4836   2.263   1.370   2.083
 1607SOL    HW2 4837   2.333   1.411   1.941
 1608SOL     OW 4838   3.526   1.280   2.519
 1608SOL    HW1 4839   3.625   1.288   2.533
 1608SOL    HW2 4840   3.481   1.364   2.550
 1609SOL     OW 4841   3.252   0.575   1.940
 1609SOL    HW1 4842   3.198   0.554   2.021
 1609SOL    HW2 4843   3.343   0.534   1.949
 1610SOL     OW 4844   2.389   0.256   2.190
 1610SOL    HW1 4845   2.416   0.197   2.115
 1610SOL    HW2 4846   2.389   0.351   2.159
 1611SOL     OW 4847   3.616   1.223   3.450
 1611SOL    HW1 4848   3.707   1.184   3.437
 1611SOL    HW2 4849   3.624   1.319   3.474
 1612SOL     OW 4850   2.926   1.347   3.202
 1612SOL    HW1 4851   2.846   1.324   3.257
 1612SOL    HW2 4852   3.009   1.321   3.251
 1613SOL     OW 4853   3.454   1.629   3.487
 1613SOL    HW1 4854   3.481   1.663   3.397
 1613SOL    HW2 4855   3.533   1.591   3.533
 1614SOL     OW 4856   2.973   1.195   2.962
 1614SOL    HW1 4857   2.933   1.239   3.043
 1614SOL    HW2 4858   2.932   1.232   2.879
 1615SOL     OW 4859   3.500   1.099   2.941
 1615SOL    HW1 4860   3.505   1.180   3.000
 1615SOL    HW2 4861   3.414   1.101   2.890
 1616SOL     OW 4862   2.777   0.089   3.264
 1616SOL    HW1 4863   2.802   0.069   3.169
 1616SOL    HW2 4864   2.849   0.145   3.306
 1617SOL     OW 4865   2.842   1.116   3.581
 1617SOL    HW1 4866   2.743   1.122   3.591
 1617SOL    HW2 4867   2.865   1.036   3.525
 1618SOL     OW 4868   2.567   1.050   2.230
 1618SOL    HW1 4869   2.553   1.057   2.329
 1618SOL    HW2 4870   2.651   0.999   2.212
 1619SOL     OW 4871   2.272   0.813   3.113
 1619SOL    HW1 4872   2.358   0.825   3.163
 1619SOL    HW2 4873   2.230   0.726   3.140
 1620SOL     OW 4874   3.136   0.386   3.124
 1620SOL    HW1 4875   3.157   0.460   3.188
 1620SOL    HW2 4876   3.047   0.403   3.081
 1621SOL     OW 4877   1.926   1.564   3.193
 1621SOL    HW1 4878   1.880   1.646   3.159
 1621SOL    HW2 4879   2.024   1.583   3.202
 1622SOL     OW 4880   2.229   1.100   2.363
 1622SOL    HW1 4881   2.222   1.183   2.307
 1622SOL    HW2 4882   2.233   1.020   2.303
 1623SOL     OW 4883   2.428   0.537   2.727
 1623SOL    HW1 4884   2.440   0.603   2.653
 1623SOL    HW2 4885   2.474   0.571   2.810
 1624SOL     OW 4886   3.114   1.348   2.250
 1624SOL    HW1 4887   3.164   1.425   2.290
 1624SOL    HW2 4888   3.019   1.350   2.282
 1625SOL     OW 4889   3.134   1.445   3.004
 1625SOL    HW1 4890   3.181   1.458   3.091
 1625SOL    HW2 4891   3.068   1.371   3.013
 1626SOL     OW 4892   3.444   0.639   2.334
 1626SOL    HW1 4893   3.413   0.700   2.407
 1626SOL    HW2 4894   3.494   0.691   2.265
 1627SOL     OW 4895   2.216   1.510   3.191
 1627SOL    HW1 4896   2.195   1.466   3.104
 1627SOL    HW2 4897   2.313   1.536   3.194
 1628SOL     OW 4898   2.264   0.751   3.460
 1628SOL    HW1 4899   2.332   0.806   3.413
 1628SOL    HW2 4900   2.304   0.663   3.487
 1629SOL     OW 4901   3.449   0.779   3.532
 1629SOL    HW1 4902   3.357   0.817   3.527
 1629SOL    HW2 4903   3.509   0.826   3.467
 1630SOL     OW 4904   2.875   0.105   3.632
 1630SOL    HW1 4905   2.881   0.190   3.580
 1630SOL    HW2 4906   2.907   0.029   3.575
 1631SOL     OW 4907   2.366   0.050   3.602
 1631SOL    HW1 4908   2.324  -0.007   3.532
 1631SOL    HW2 4909   2.300   0.119   3.634
 1632SOL     OW 4910   2.435   0.870   2.891
 1632SOL    HW1 4911   2.479   0.959   2.882
 1632SOL    HW2 4912   2.372   0.870   2.968
 1633SOL     OW 4913   3.222   0.862   2.907
 1633SOL    HW1 4914   3.147   0.862   2.841
 1633SOL    HW2 4915   3.259   0.770   2.916
 1634SOL     OW 4916   3.071   0.525   2.137
 1634SOL    HW1 4917   3.084   0.441   2.191
 1634SOL    HW2 4918   3.042   0.599   2.197
 1635SOL     OW 4919   2.169   0.213   3.093
 1635SOL    HW1 4920   2.146   0.250   3.183
 1635SOL    HW2 4921   2.139   0.118   3.087
 1636SOL     OW 4922   1.899   1.310   3.144
 1636SOL    HW1 4923   1.952   1.261   3.212
 1636SOL    HW2 4924   1.921   1.408   3.149
 1637SOL     OW 4925   2.594   0.634   2.926
 1637SOL    HW1 4926   2.653   0.608   2.850
 1637SOL    HW2 4927   2.566   0.730   2.915
 1638SOL     OW 4928   3.590   0.935   3.716
 1638SOL    HW1 4929   3.544   0.928   3.627
 1638SOL    HW2 4930   3.528   0.979   3.782
 1639SOL     OW 4931   2.169   0.063   2.480
 1639SOL    HW1 4932   2.158   0.157   2.513
 1639SOL    HW2 4933   2.164   0.000   2.557
 1640SOL     OW 4934   3.484   0.367   2.236
 1640SOL    HW1 4935   3.486   0.291   2.300
 1640SOL    HW2 4936   3.436   0.444   2.276
 1641SOL     OW 4937   2.885   0.766   2.828
 1641SOL    HW1 4938   2.900   0.787   2.924
 1641SOL    HW2 4939   2.855   0.671   2.819
 1642SOL     OW 4940   2.842   1.573   3.562
 1642SOL    HW1 4941   2.822   1.617   3.474
 1642SOL    HW2 4942   2.881   1.482   3.546
 1643SOL     OW 4943   3.721   1.518   3.467
 1643SOL    HW1 4944   3.735   1.545   3.372
 1643SOL    HW2 4945   3.804   1.540   3.520
 1644SOL     OW 4946   2.212   0.898   3.666
 1644SOL    HW1 4947   2.288   0.942   3.714
 1644SOL    HW2 4948   2.247   0.851   3.584
 1645SOL     OW 4949   3.402   0.274   1.987
 1645SOL    HW1 4950   3.341   0.199   2.010
 1645SOL    HW2 4951   3.424   0.326   2.070
 1646SOL     OW 4952   3.165   0.838   1.904
 1646SOL    HW1 4953   3.199   0.745   1.919
 1646SOL    HW2 4954   3.183   0.865   1.809
 1647SOL     OW 4955   2.930   1.333   2.711
 1647SOL    HW1 4956   2.937   1.249   2.656
 1647SOL    HW2 4957   2.992   1.402   2.675
 1648SOL     OW 4958   2.181   0.810   2.811
 1648SOL    HW1 4959   2.274   0.846   2.816
 1648SOL    HW2 4960   2.175   0.725   2.863
 1649SOL     OW 4961   2.201   0.509   2.868
 1649SOL    HW1 4962   2.149   0.426   2.851
 1649SOL    HW2 4963   2.278   0.514   2.804
 1650SOL     OW 4964   3.000   0.380   3.540
 1650SOL    HW1 4965   2.955   0.443   3.604
 1650SOL    HW2 4966   3.093   0.411   3.523
 1651SOL     OW 4967   3.022   0.207   3.339
 1651SOL    HW1 4968   3.022   0.271   3.416
 1651SOL    HW2 4969   3.050   0.255   3.256
 1652SOL     OW 4970   1.870   1.326   2.062
 1652SOL    HW1 4971   1.777   1.347   2.031
 1652SOL    HW2 4972   1.880   1.227   2.075
 1653SOL     OW 4973   1.950   1.801   2.789
 1653SOL    HW1 4974   1.908   1.715   2.762
 1653SOL    HW2 4975   2.044   1.804   2.755
 1654SOL     OW 4976   2.366   1.568   2.772
 1654SOL    HW1 4977   2.432   1.642   2.781
 1654SOL    HW2 4978   2.410   1.489   2.730
 1655SOL     OW 4979   2.864   0.796   3.100
 1655SOL    HW1 4980   2.905   0.764   3.186
 1655SOL    HW2 4981   2.768   0.769   3.097
 1656SOL     OW 4982   1.902   0.544   2.976
 1656SOL    HW1 4983   1.987   0.511   2.935
 1656SOL    HW2 4984   1.915   0.559   3.074
 1657SOL     OW 4985   2.051   0.520   3.584
 1657SOL    HW1 4986   2.110   0.480   3.514
 1657SOL    HW2 4987   1.993   0.591   3.543
 1658SOL     OW 4988   3.231   0.950   3.522
 1658SOL    HW1 4989   3.270   1.039   3.542
 1658SOL    HW2 4990   3.241   0.930   3.425
 1659SOL     OW 4991   2.677   0.572   2.187
 1659SOL    HW1 4992   2.684   0.483   2.141
 1659SOL    HW2 4993   2.583   0.606   2.179
 1660SOL     OW 4994   3.519   0.604   3.068
 1660SOL    HW1 4995   3.481   0.535   3.130
 1660SOL    HW2 4996   3.601   0.568   3.024
 1661SOL     OW 4997   2.114   1.564   3.606
 1661SOL    HW1 4998   2.084   1.621   3.682
 1661SOL    HW2 4999   2.107   1.467   3.632
 1662SOL     OW 5000   2.533   0.464   3.131
 1662SOL    HW1 5001   2.499   0.375   3.101
 1662SOL    HW2 5002   2.559   0.518   3.051
 1663SOL     OW 5003   2.792   1.678   3.327
 1663SOL    HW1 5004   2.768   1.660   3.232
 1663SOL    HW2 5005   2.822   1.772   3.337
 1664SOL     OW 5006   2.335   0.500   2.053
 1664SOL    HW1 5007   2.396   0.580   2.057
 1664SOL    HW2 5008   2.240   0.531   2.060
 1665SOL     OW 5009   2.021   1.137   3.328
 1665SOL    HW1 5010   2.043   1.076   3.404
 1665SOL    HW2 5011   2.031   1.088   3.242
 1666SOL     OW 5012   3.209   1.059   3.096
 1666SOL    HW1 5013   3.233   0.996   3.022
 1666SOL    HW2 5014   3.119   1.099   3.078
 1667SOL     OW 5015   3.164   0.855   2.171
 1667SOL    HW1 5016   3.078   0.824   2.213
 1667SOL    HW2 5017   3.160   0.841   2.072
 1668SOL     OW 5018   3.621   1.747   3.016
 1668SOL    HW1 5019   3.682   1.777   2.943
 1668SOL    HW2 5020   3.583   1.658   2.994
 1669SOL     OW 5021   3.114   1.731   2.990
 1669SOL    HW1 5022   3.198   1.736   2.936
 1669SOL    HW2 5023   3.091   1.635   3.008
 1670SOL     OW 5024   1.945   1.258   2.884
 1670SOL    HW1 5025   1.940   1.257   2.984
 1670SOL    HW2 5026   1.862   1.217   2.846
 1671SOL     OW 5027   2.550   1.662   3.578
 1671SOL    HW1 5028   2.494   1.743   3.587
 1671SOL    HW2 5029   2.602   1.666   3.492
 1672SOL     OW 5030   3.588   0.135   2.385
 1672SOL    HW1 5031   3.661   0.118   2.318
 1672SOL    HW2 5032   3.557   0.048   2.423
 1673SOL     OW 5033   3.250   1.573   2.339
 1673SOL    HW1 5034   3.317   1.585   2.265
 1673SOL    HW2 5035   3.210   1.662   2.362
 1674SOL     OW 5036   1.992   1.794   3.713
 1674SOL    HW1 5037   1.951   1.720   3.766
 1674SOL    HW2 5038   2.056   1.845   3.771
 1675SOL     OW 5039   3.142   0.927   2.534
 1675SOL    HW1 5040   3.202   0.846   2.536
 1675SOL    HW2 5041   3.182   0.996   2.474
 1676SOL     OW 5042   2.692   1.273   3.284
 1676SOL    HW1 5043   2.687   1.306   3.379
 1676SOL    HW2 5044   2.606   1.292   3.238
 1677SOL     OW 5045   2.534   1.616   2.016
 1677SOL    HW1 5046   2.543   1.626   1.917
 1677SOL    HW2 5047   2.494   1.527   2.037
 1678SOL     OW 5048   3.512   1.720   3.256
 1678SOL    HW1 5049   3.565   1.730   3.172
 1678SOL    HW2 5050   3.485   1.810   3.290
 1679SOL     OW 5051   3.703   0.175   2.825
 1679SOL    HW1 5052   3.742   0.090   2.789
 1679SOL    HW2 5053   3.605   0.177   2.806
 1680SOL     OW 5054   2.125   0.326   2.582
 1680SOL    HW1 5055   2.046   0.377   2.548
 1680SOL    HW2 5056   2.116   0.311   2.680
 1681SOL     OW 5057   3.056   1.612   1.893
 1681SOL    HW1 5058   3.062   1.519   1.930
 1681SOL    HW2 5059   2.997   1.612   1.813
 1682SOL     OW 5060   2.684   1.002   3.234
 1682SOL    HW1 5061   2.724   1.001   3.142
 1682SOL    HW2 5062   2.694   1.094   3.274
 1683SOL     OW 5063   2.778   0.910   2.153
 1683SOL    HW1 5064   2.841   0.948   2.085
 1683SOL    HW2 5065   2.818   0.827   2.192
 1684SOL     OW 5066   3.366   1.607   1.906
 1684SOL    HW1 5067   3.274   1.644   1.913
 1684SOL    HW2 5068   3.404   1.627   1.816
 1685SOL     OW 5069   2.234   1.288   3.352
 1685SOL    HW1 5070   2.221   1.381   3.318
 1685SOL    HW2 5071   2.150   1.236   3.339
 1686SOL     OW 5072   3.476   1.292   3.151
 1686SOL    HW1 5073   3.536   1.295   3.231
 1686SOL    HW2 5074   3.401   1.356   3.164
 1687SOL     OW 5075   2.901   1.098   2.558
 1687SOL    HW1 5076   2.831   1.051   2.612
 1687SOL    HW2 5077   2.960   1.030   2.515
 1688SOL     OW 5078   2.876   0.236   2.833
 1688SOL    HW1 5079   2.868   0.200   2.740
 1688SOL    HW2 5080   2.874   0.160   2.898
 1689SOL     OW 5081   2.452   1.487   2.353
 1689SOL    HW1 5082   2.494   1.429   2.283
 1689SOL    HW2 5083   2.408   1.566   2.309
 1690SOL     OW 5084   3.571   0.385   3.243
 1690SOL    HW1 5085   3.644   0.454   3.247
 1690SOL    HW2 5086   3.599   0.310   3.184
 1691SOL     OW 5087   2.117   1.348   2.152
 1691SOL    HW1 5088   2.021   1.349   2.125
 1691SOL    HW2 5089   2.129   1.401   2.236
 1692SOL     OW 5090   1.967   1.013   3.588
 1692SOL    HW1 5091   1.890   0.980   3.642
 1692SOL    HW2 5092   2.052   0.983   3.630
 1693SOL     OW 5093   2.534   0.203   3.351
 1693SOL    HW1 5094   2.624   0.187   3.311
 1693SOL    HW2 5095   2.542   0.208   3.450
 1694SOL     OW 5096   1.937   0.345   1.895
 1694SOL    HW1 5097   1.845   0.317   1.866
 1694SOL    HW2 5098   1.968   0.422   1.839
 1695SOL     OW 5099   3.302   0.856   3.260
 1695SOL    HW1 5100   3.245   0.908   3.197
 1695SOL    HW2 5101   3.398   0.868   3.236
 1696SOL     OW 5102   1.934   0.166   2.180
 1696SOL    HW1 5103   1.917   0.249   2.126
 1696SOL    HW2 5104   2.024   0.129   2.158
 1697SOL     OW 5105   3.045   1.335   1.981
 1697SOL    HW1 5106   2.946   1.324   1.983
 1697SOL    HW2 5107   3.079   1.350   2.074
 1698SOL     OW 5108   2.475   0.842   3.293
 1698SOL    HW1 5109   2.531   0.923   3.276
 1698SOL    HW2 5110   2.534   0.762   3.296
 1699SOL     OW 5111   3.355   1.767   2.821
 1699SOL    HW1 5112   3.388   1.831   2.752
 1699SOL    HW2 5113   3.421   1.761   2.896
 1700SOL     OW 5114   2.578   0.565   3.570
 1700SOL    HW1 5115   2.597   0.630   3.644
 1700SOL    HW2 5116   2.638   0.485   3.579
 1701SOL     OW 5117   3.312   1.220   3.495
 1701SOL    HW1 5118   3.303   1.210   3.594
 1701SOL    HW2 5119   3.408   1.213   3.469
 1702SOL     OW 5120   2.252   1.741   3.422
 1702SOL    HW1 5121   2.161   1.782   3.420
 1702SOL    HW2 5122   2.245   1.647   3.454
 1703SOL     OW 5123   3.536   0.883   3.116
 1703SOL    HW1 5124   3.509   0.794   3.079
 1703SOL    HW2 5125   3.537   0.951   3.043
 1704SOL     OW 5126   3.087   0.325   2.311
 1704SOL    HW1 5127   3.152   0.251   2.300
 1704SOL    HW2 5128   3.107   0.375   2.395
 1705SOL     OW 5129   2.456   0.745   2.514
 1705SOL    HW1 5130   2.506   0.830   2.495
 1705SOL    HW2 5131   2.368   0.747   2.466
 1706SOL     OW 5132   3.639   0.342   3.504
 1706SOL    HW1 5133   3.622   0.373   3.410
 1706SOL    HW2 5134   3.555   0.305   3.542
 1707SOL     OW 5135   3.592   0.934   3.379
 1707SOL    HW1 5136   3.630   1.025   3.394
 1707SOL    HW2 5137   3.584   0.917   3.280
 1708SOL     OW 5138   2.721   1.374   1.878
 1708SOL    HW1 5139   2.675   1.389   1.966
 1708SOL    HW2 5140   2.765   1.459   1.848
 1709SOL     OW 5141   2.523   1.790   2.815
 1709SOL    HW1 5142   2.477   1.878   2.802
 1709SOL    HW2 5143   2.622   1.802   2.808
 1710SOL     OW 5144   2.721   0.956   2.723
 1710SOL    HW1 5145   2.775   0.887   2.771
 1710SOL    HW2 5146   2.689   1.025   2.789
 1711SOL     OW 5147   2.945   0.984   1.949
 1711SOL    HW1 5148   2.922   1.037   1.867
 1711SOL    HW2 5149   3.026   0.928   1.930
 1712SOL     OW 5150   3.723   1.569   2.713
 1712SOL    HW1 5151   3.652   1.557   2.643
 1712SOL    HW2 5152   3.724   1.490   2.773
 1713SOL     OW 5153   2.083   1.314   3.706
 1713SOL    HW1 5154   2.018   1.241   3.685
 1713SOL    HW2 5155   2.087   1.328   3.804
 1714SOL     OW 5156   1.941   1.240   2.515
 1714SOL    HW1 5157   1.940   1.193   2.603
 1714SOL    HW2 5158   2.023   1.212   2.464
 1715SOL     OW 5159   2.534   1.391   3.486
 1715SOL    HW1 5160   2.456   1.341   3.524
 1715SOL    HW2 5161   2.531   1.486   3.517
 1716SOL     OW 5162   3.686   0.192   3.089
 1716SOL    HW1 5163   3.682   0.102   3.133
 1716SOL    HW2 5164   3.689   0.181   2.990
 1717SOL     OW 5165   2.290   0.424   2.382
 1717SOL    HW1 5166   2.320   0.352   2.320
 1717SOL    HW2 5167   2.251   0.384   2.465
 1718SOL     OW 5168   3.567   1.487   2.966
 1718SOL    HW1 5169   3.474   1.462   2.939
 1718SOL    HW2 5170   3.593   1.437   3.048
 1719SOL     OW 5171   2.179   0.547   3.142
 1719SOL    HW1 5172   2.217   0.488   3.214
 1719SOL    HW2 5173   2.219   0.521   3.054
 1720SOL     OW 5174   2.674   1.586   2.549
 1720SOL    HW1 5175   2.706   1.596   2.455
 1720SOL    HW2 5176   2.595   1.524   2.551
 1721SOL     OW 5177   3.286   0.214   2.974
 1721SOL    HW1 5178   3.338   0.149   3.029
 1721SOL    HW2 5179   3.237   0.277   3.035
 1722SOL     OW 5180   2.863   0.034   3.016
 1722SOL    HW1 5181   2.800  -0.038   2.985
 1722SOL    HW2 5182   2.956  -0.002   3.016
 1723SOL     OW 5183   2.632   1.330   2.163
 1723SOL    HW1 5184   2.586   1.243   2.180
 1723SOL    HW2 5185   2.723   1.327   2.204
 1724SOL     OW 5186   2.480   1.567   3.146
 1724SOL    HW1 5187   2.475   1.649   3.203
 1724SOL    HW2 5188   2.569   1.564   3.101
 1725SOL     OW 5189   3.214   0.052   2.030
 1725SOL    HW1 5190   3.249   0.011   1.946
 1725SOL    HW2 5191   3.124   0.014   2.050
 1726SOL     OW 5192   3.162   0.453   2.553
 1726SOL    HW1 5193   3.103   0.533   2.557
 1726SOL    HW2 5194   3.177   0.418   2.646
 1727SOL     OW 5195   3.455   0.221   2.744
 1727SOL    HW1 5196   3.371   0.220   2.798
 1727SOL    HW2 5197   3.457   0.304   2.688
 1728SOL     OW 5198   1.901   1.077   2.162
 1728SOL    HW1 5199   2.000   1.066   2.153
 1728SOL    HW2 5200   1.861   0.991   2.194
 1729SOL     OW 5201   2.737   1.646   2.199
 1729SOL    HW1 5202   2.660   1.611   2.145
 1729SOL    HW2 5203   2.705   1.717   2.261
 1730SOL     OW 5204   2.092   0.628   3.837
 1730SOL    HW1 5205   1.999   0.626   3.874
 1730SOL    HW2 5206   2.093   0.589   3.745
 1731SOL     OW 5207   2.087   0.275   4.720
 1731SOL    HW1 5208   2.122   0.258   4.812
 1731SOL    HW2 5209   1.999   0.230   4.708
 1732SOL     OW 5210   1.881   0.368   4.371
 1732SOL    HW1 5211   1.799   0.411   4.410
 1732SOL    HW2 5212   1.853   0.295   4.308
 1733SOL     OW 5213   3.417   1.511   4.427
 1733SOL    HW1 5214   3.360   1.495   4.508
 1733SOL    HW2 5215   3.358   1.521   4.347
 1734SOL     OW 5216   2.997   0.703   4.441
 1734SOL    HW1 5217   3.054   0.781   4.416
 1734SOL    HW2 5218   2.937   0.729   4.517
 1735SOL     OW 5219   3.617   0.607   3.955
 1735SOL    HW1 5220   3.605   0.594   3.856
 1735SOL    HW2 5221   3.587   0.526   4.004
 1736SOL     OW 5222   2.630   1.144   4.747
 1736SOL    HW1 5223   2.552   1.161   4.807
 1736SOL    HW2 5224   2.664   1.231   4.711
 1737SOL     OW 5225   2.547   1.012   4.389
 1737SOL    HW1 5226   2.616   0.996   4.459
 1737SOL    HW2 5227   2.474   1.069   4.427
 1738SOL     OW 5228   3.465   0.447   4.461
 1738SOL    HW1 5229   3.391   0.493   4.411
 1738SOL    HW2 5230   3.516   0.515   4.514
 1739SOL     OW 5231   2.093   1.713   4.207
 1739SOL    HW1 5232   2.127   1.790   4.261
 1739SOL    HW2 5233   2.137   1.713   4.117
 1740SOL     OW 5234   2.092   1.434   4.262
 1740SOL    HW1 5235   2.066   1.530   4.262
 1740SOL    HW2 5236   2.021   1.380   4.307
 1741SOL     OW 5237   2.102   1.091   4.610
 1741SOL    HW1 5238   2.116   1.007   4.662
 1741SOL    HW2 5239   2.047   1.155   4.665
 1742SOL     OW 5240   2.468   0.964   3.847
 1742SOL    HW1 5241   2.475   1.048   3.793
 1742SOL    HW2 5242   2.514   0.977   3.935
 1743SOL     OW 5243   1.984   0.643   4.287
 1743SOL    HW1 5244   1.939   0.555   4.304
 1743SOL    HW2 5245   1.983   0.697   4.371
 1744SOL     OW 5246   3.704   1.767   4.083
 1744SOL    HW1 5247   3.758   1.738   4.163
 1744SOL    HW2 5248   3.734   1.857   4.054
 1745SOL     OW 5249   1.889   1.596   3.841
 1745SOL    HW1 5250   1.870   1.500   3.862
 1745SOL    HW2 5251   1.856   1.654   3.916
 1746SOL     OW 5252   3.551   0.922   4.336
 1746SOL    HW1 5253   3.646   0.893   4.344
 1746SOL    HW2 5254   3.543   0.987   4.261
 1747SOL     OW 5255   3.503   1.108   4.156
 1747SOL    HW1 5256   3.589   1.110   4.104
 1747SOL    HW2 5257   3.517   1.155   4.244
 1748SOL     OW 5258   2.475   1.365   4.450
 1748SOL    HW1 5259   2.426   1.278   4.459
 1748SOL    HW2 5260   2.452   1.408   4.363
 1749SOL     OW 5261   2.671   0.004   4.226
 1749SOL    HW1 5262   2.711   0.095   4.217
 1749SOL    HW2 5263   2.571   0.012   4.232
 1750SOL     OW 5264   3.387   0.999   3.914
 1750SOL    HW1 5265   3.324   0.923   3.927
 1750SOL    HW2 5266   3.435   1.017   4.000
 1751SOL     OW 5267   3.529   1.714   4.296
 1751SOL    HW1 5268   3.488   1.691   4.208
 1751SOL    HW2 5269   3.511   1.640   4.361
 1752SOL     OW 5270   2.460   0.729   3.994
 1752SOL    HW1 5271   2.484   0.798   3.926
 1752SOL    HW2 5272   2.382   0.762   4.048
 1753SOL     OW 5273   3.143   0.345   4.668
 1753SOL    HW1 5274   3.057   0.295   4.655
 1753SOL    HW2 5275   3.205   0.291   4.724
 1754SOL     OW 5276   3.438   1.662   4.031
 1754SOL    HW1 5277   3.527   1.708   4.034
 1754SOL    HW2 5278   3.417   1.638   3.936
 1755SOL     OW 5279   2.903   0.701   4.153
 1755SOL    HW1 5280   2.929   0.697   4.249
 1755SOL    HW2 5281   2.818   0.650   4.139
 1756SOL     OW 5282   1.938   0.811   4.513
 1756SOL    HW1 5283   2.037   0.799   4.522
 1756SOL    HW2 5284   1.914   0.906   4.534
 1757SOL     OW 5285   2.727   0.348   3.919
 1757SOL    HW1 5286   2.786   0.411   3.870
 1757SOL    HW2 5287   2.746   0.254   3.890
 1758SOL     OW 5288   3.224   1.144   4.269
 1758SOL    HW1 5289   3.307   1.115   4.221
 1758SOL    HW2 5290   3.175   1.211   4.213
 1759SOL     OW 5291   2.870   1.456   4.201
 1759SOL    HW1 5292   2.824   1.528   4.149
 1759SOL    HW2 5293   2.866   1.476   4.299
 1760SOL     OW 5294   2.213   1.801   4.577
 1760SOL    HW1 5295   2.263   1.715   4.583
 1760SOL    HW2 5296   2.278   1.878   4.574
 1761SOL     OW 5297   3.657   1.066   4.597
 1761SOL    HW1 5298   3.595   1.051   4.521
 1761SOL    HW2 5299   3.605   1.077   4.682
 1762SOL     OW 5300   2.183   0.943   3.966
 1762SOL    HW1 5301   2.265   0.982   3.924
 1762SOL    HW2 5302   2.156   0.861   3.917
 1763SOL     OW 5303   3.320   0.735   4.452
 1763SOL    HW1 5304   3.315   0.670   4.527
 1763SOL    HW2 5305   3.400   0.794   4.465
 1764SOL     OW 5306   2.973   1.776   3.961
 1764SOL    HW1 5307   2.913   1.714   4.011
 1764SOL    HW2 5308   3.004   1.732   3.876
 1765SOL     OW 5309   3.494   1.377   3.805
 1765SOL    HW1 5310   3.462   1.471   3.795
 1765SOL    HW2 5311   3.418   1.314   3.793
 1766SOL     OW 5312   2.326   1.743   4.047
 1766SOL    HW1 5313   2.359   1.782   4.133
 1766SOL    HW2 5314   2.402   1.736   3.982
 1767SOL     OW 5315   3.262   0.107   4.150
 1767SOL    HW1 5316   3.238   0.070   4.060
 1767SOL    HW2 5317   3.361   0.123   4.154
 1768SOL     OW 5318   2.244   0.700   4.204
 1768SOL    HW1 5319   2.289   0.610   4.201
 1768SOL    HW2 5320   2.150   0.689   4.237
 1769SOL     OW 5321   2.476   0.122   3.841
 1769SOL    HW1 5322   2.574   0.100   3.848
 1769SOL    HW2 5323   2.445   0.105   3.748
 1770SOL     OW 5324   2.401   0.064   4.236
 1770SOL    HW1 5325   2.320   0.065   4.294
 1770SOL    HW2 5326   2.404   0.147   4.181
 1771SOL     OW 5327   3.296   1.188   3.765
 1771SOL    HW1 5328   3.328   1.112   3.822
 1771SOL    HW2 5329   3.204   1.215   3.795
 1772SOL     OW 5330   2.159   0.035   3.895
 1772SOL    HW1 5331   2.208   0.119   3.874
 1772SOL    HW2 5332   2.221  -0.030   3.940
 1773SOL     OW 5333   2.797   0.236   4.204
 1773SOL    HW1 5334   2.749   0.277   4.126
 1773SOL    HW2 5335   2.896   0.234   4.185
 1774SOL     OW 5336   2.321   1.152   4.465
 1774SOL    HW1 5337   2.250   1.125   4.530
 1774SOL    HW2 5338   2.295   1.124   4.372
 1775SOL     OW 5339   3.133   1.797   4.315
 1775SOL    HW1 5340   3.177   1.861   4.251
 1775SOL    HW2 5341   3.083   1.849   4.385
 1776SOL     OW 5342   2.894   0.549   3.740
 1776SOL    HW1 5343   2.853   0.631   3.701
 1776SOL    HW2 5344   2.958   0.575   3.813
 1777SOL     OW 5345   2.728   0.454   4.366
 1777SOL    HW1 5346   2.696   0.526   4.304
 1777SOL    HW2 5347   2.752   0.373   4.313
 1778SOL     OW 5348   2.879   0.039   4.477
 1778SOL    HW1 5349   2.807   0.044   4.408
 1778SOL    HW2 5350   2.855  -0.030   4.546
 1779SOL     OW 5351   3.719   0.833   4.101
 1779SOL    HW1 5352   3.761   0.769   4.165
 1779SOL    HW2 5353   3.681   0.782   4.023
 1780SOL     OW 5354   2.350   1.385   3.898
 1780SOL    HW1 5355   2.263   1.370   3.945
 1780SOL    HW2 5356   2.333   1.411   3.803
 1781SOL     OW 5357   3.526   1.280   4.381
 1781SOL    HW1 5358   3.625   1.288   4.395
 1781SOL    HW2 5359   3.481   1.364   4.412
 1782SOL     OW 5360   3.252   0.575   3.802
 1782SOL    HW1 5361   3.198   0.554   3.883
 1782SOL    HW2 5362   3.343   0.534   3.811
 1783SOL     OW 5363   2.389   0.256   4.052
 1783SOL    HW1 5364   2.416   0.197   3.977
 1783SOL    HW2 5365   2.389   0.351   4.021
 1784SOL     OW 5366   2.567   1.050   4.092
 1784SOL    HW1 5367   2.553   1.057   4.191
 1784SOL    HW2 5368   2.651   0.999   4.074
 1785SOL     OW 5369   2.229   1.100   4.225
 1785SOL    HW1 5370   2.222   1.183   4.169
 1785SOL    HW2 5371   2.233   1.020   4.165
 1786SOL     OW 5372   2.428   0.537   4.589
 1786SOL    HW1 5373   2.440   0.603   4.515
 1786SOL    HW2 5374   2.474   0.571   4.672
 1787SOL     OW 5375   3.114   1.348   4.112
 1787SOL    HW1 5376   3.164   1.425   4.152
 1787SOL    HW2 5377   3.019   1.350   4.144
 1788SOL     OW 5378   3.444   0.639   4.196
 1788SOL    HW1 5379   3.413   0.700   4.269
 1788SOL    HW2 5380   3.494   0.691   4.127
 1789SOL     OW 5381   3.071   0.525   3.999
 1789SOL    HW1 5382   3.084   0.441   4.053
 1789SOL    HW2 5383   3.042   0.599   4.059
 1790SOL     OW 5384   2.169   0.063   4.342
 1790SOL    HW1 5385   2.158   0.157   4.375
 1790SOL    HW2 5386   2.164   0.000   4.419
 1791SOL     OW 5387   3.484   0.367   4.098
 1791SOL    HW1 5388   3.486   0.291   4.162
 1791SOL    HW2 5389   3.436   0.444   4.138
 1792SOL     OW 5390   3.402   0.274   3.849
 1792SOL    HW1 5391   3.341   0.199   3.872
 1792SOL    HW2 5392   3.424   0.326   3.932
 1793SOL     OW 5393   3.165   0.838   3.766
 1793SOL    HW1 5394   3.199   0.745   3.781
 1793SOL    HW2 5395   3.183   0.865   3.671
 1794SOL     OW 5396   2.930   1.333   4.573
 1794SOL    HW1 5397   2.937   1.249   4.518
 1794SOL    HW2 5398   2.992   1.402   4.537
 1795SOL     OW 5399   1.870   1.326   3.924
 1795SOL    HW1 5400   1.777   1.347   3.893
 1795SOL    HW2 5401   1.880   1.227   3.937
 1796SOL     OW 5402   1.950   1.801   4.651
 1796SOL    HW1 5403   1.908   1.715   4.624
 1796SOL    HW2 5404   2.044   1.804   4.617
 1797SOL     OW 5405   2.677   0.572   4.049
 1797SOL    HW1 5406   2.684   0.483   4.003
 1797SOL    HW2 5407   2.583   0.606   4.041
 1798SOL     OW 5408   2.335   0.500   3.915
 1798SOL    HW1 5409   2.396   0.580   3.919
 1798SOL    HW2 5410   2.240   0.531   3.922
 1799SOL     OW 5411   3.164   0.855   4.033
 1799SOL    HW1 5412   3.078   0.824   4.075
 1799SOL    HW2 5413   3.160   0.841   3.934
 1800SOL     OW 5414   3.588   0.135   4.247
 1800SOL    HW1 5415   3.661   0.118   4.180
 1800SOL    HW2 5416   3.557   0.048   4.285
 1801SOL     OW 5417   3.250   1.573   4.201
 1801SOL    HW1 5418   3.317   1.585   4.127
 1801SOL    HW2 5419   3.210   1.662   4.224
 1802SOL     OW 5420   3.142   0.927   4.396
 1802SOL    HW1 5421   3.202   0.846   4.398
 1802SOL    HW2 5422   3.182   0.996   4.336
 1803SOL     OW 5423   2.534   1.616   3.878
 1803SOL    HW1 5424   2.543   1.626   3.779
 1803SOL    HW2 5425   2.494   1.527   3.899
 1804SOL     OW 5426   3.703   0.175   4.687
 1804SOL    HW1 5427   3.742   0.090   4.651
 1804SOL    HW2 5428   3.605   0.177   4.668
 1805SOL     OW 5429   2.125   0.326   4.444
 1805SOL    HW1 5430   2.046   0.377   4.410
 1805SOL    HW2 5431   2.116   0.311   4.542
 1806SOL     OW 5432   3.056   1.612   3.755
 1806SOL    HW1 5433   3.062   1.519   3.792
 1806SOL    HW2 5434   2.997   1.612   3.675
 1807SOL     OW 5435   2.778   0.910   4.015
 1807SOL    HW1 5436   2.841   0.948   3.947
 1807SOL    HW2 5437   2.818   0.827   4.054
 1808SOL     OW 5438   3.366   1.607   3.768
 1808SOL    HW1 5439   3.274   1.644   3.775
 1808SOL    HW2 5440   3.404   1.627   3.678
 1809SOL     OW 5441   2.901   1.098   4.420
 1809SOL    HW1 5442   2.831   1.051   4.474
 1809SOL    HW2 5443   2.960   1.030   4.377
 1810SOL     OW 5444   2.452   1.487   4.215
 1810SOL    HW1 5445   2.494   1.429   4.145
 1810SOL    HW2 5446   2.408   1.566   4.171
 1811SOL     OW 5447   2.117   1.348   4.014
 1811SOL    HW1 5448   2.021   1.349   3.987
 1811SOL    HW2 5449   2.129   1.401   4.098
 1812SOL     OW 5450   1.937   0.345   3.757
 1812SOL    HW1 5451   1.845   0.317   3.728
 1812SOL    HW2 5452   1.968   0.422   3.701
 1813SOL     OW 5453   1.934   0.166   4.042
 1813SOL    HW1 5454   1.917   0.249   3.988
 1813SOL    HW2 5455   2.024   0.129   4.020
 1814SOL     OW 5456   3.045   1.335   3.843
 1814SOL    HW1 5457   2.946   1.324   3.845
 1814SOL    HW2 5458   3.079   1.350   3.936
 1815SOL     OW 5459   3.087   0.325   4.173
 1815SOL    HW1 5460   3.152   0.251   4.162
 1815SOL    HW2 5461   3.107   0.375   4.257
 1816SOL     OW 5462   2.456   0.745   4.376
 1816SOL    HW1 5463   2.506   0.830   4.357
 1816SOL    HW2 5464   2.368   0.747   4.328
 1817SOL     OW 5465   2.721   1.374   3.740
 1817SOL    HW1 5466   2.675   1.389   3.828
 1817SOL    HW2 5467   2.765   1.459   3.710
 1818SOL     OW 5468   2.523   1.790   4.677
 1818SOL    HW1 5469   2.477   1.878   4.664
 1818SOL    HW2 5470   2.622   1.802   4.670
 1819SOL     OW 5471   2.721   0.956   4.585
 1819SOL    HW1 5472   2.775   0.887   4.633
 1819SOL    HW2 5473   2.689   1.025   4.651
 1820SOL     OW 5474   2.945   0.984   3.811
 1820SOL    HW1 5475   2.922   1.037   3.729
 1820SOL    HW2 5476   3.026   0.928   3.792
 1821SOL     OW 5477   3.723   1.569   4.575
 1821SOL    HW1 5478   3.652   1.557   4.505
 1821SOL    HW2 5479   3.724   1.490   4.635
 1822SOL     OW 5480   1.941   1.240   4.377
 1822SOL    HW1 5481   1.940   1.193   4.465
 1822SOL    HW2 5482   2.023   1.212   4.326
 1823SOL     OW 5483   2.290   0.424   4.244
 1823SOL    HW1 5484   2.320   0.352   4.182
 1823SOL    HW2 5485   2.251   0.384   4.327
 1824SOL     OW 5486   2.674   1.586   4.411
 1824SOL    HW1 5487   2.706   1.596   4.317
 1824SOL    HW2 5488   2.595   1.524   4.413
 1825SOL     OW 5489   2.632   1.330   4.025
 1825SOL    HW1 5490   2.586   1.243   4.042
 1825SOL    HW2 5491   2.723   1.327   4.066
 1826SOL     OW 5492   3.214   0.052   3.892
 1826SOL    HW1 5493   3.249   0.011   3.808
 1826SOL    HW2 5494   3.124   0.014   3.912
 1827SOL     OW 5495   3.162   0.453   4.415
 1827SOL    HW1 5496   3.103   0.533   4.419
 1827SOL    HW2 5497   3.177   0.418   4.508
 1828SOL     OW 5498   1.901   1.077   4.024
 1828SOL    HW1 5499   2.000   1.066   4.015
 1828SOL    HW2 5500   1.861   0.991   4.056
 1829SOL     OW 5501   2.737   1.646   4.061
 1829SOL    HW1 5502   2.660   1.611   4.007
 1829SOL    HW2 5503   2.705   1.717   4.123
 1830SOL     OW 5504   2.092   2.490   0.113
 1830SOL    HW1 5505   1.999   2.488   0.150
 1830SOL    HW2 5506   2.093   2.451   0.021
 1831SOL     OW 5507   2.087   2.137   0.996
 1831SOL    HW1 5508   2.122   2.120   1.088
 1831SOL    HW2 5509   1.999   2.092   0.984
 1832SOL     OW 5510   1.881   2.230   0.647
 1832SOL    HW1 5511   1.799   2.273   0.686
 1832SOL    HW2 5512   1.853   2.157   0.584
 1833SOL     OW 5513   2.431   3.137   1.165
 1833SOL    HW1 5514   2.338   3.130   1.128
 1833SOL    HW2 5515   2.442   3.226   1.209
 1834SOL     OW 5516   3.417   3.373   0.703
 1834SOL    HW1 5517   3.360   3.357   0.784
 1834SOL    HW2 5518   3.358   3.383   0.623
 1835SOL     OW 5519   2.997   2.565   0.717
 1835SOL    HW1 5520   3.054   2.643   0.692
 1835SOL    HW2 5521   2.937   2.591   0.793
 1836SOL     OW 5522   3.617   2.469   0.231
 1836SOL    HW1 5523   3.605   2.456   0.132
 1836SOL    HW2 5524   3.587   2.388   0.280
 1837SOL     OW 5525   2.630   3.006   1.023
 1837SOL    HW1 5526   2.552   3.023   1.083
 1837SOL    HW2 5527   2.664   3.093   0.987
 1838SOL     OW 5528   2.712   2.660   1.823
 1838SOL    HW1 5529   2.708   2.736   1.888
 1838SOL    HW2 5530   2.734   2.696   1.732
 1839SOL     OW 5531   2.547   2.874   0.665
 1839SOL    HW1 5532   2.616   2.858   0.735
 1839SOL    HW2 5533   2.474   2.931   0.703
 1840SOL     OW 5534   2.548   3.023   1.803
 1840SOL    HW1 5535   2.608   3.102   1.817
 1840SOL    HW2 5536   2.462   3.054   1.762
 1841SOL     OW 5537   2.197   3.297   1.061
 1841SOL    HW1 5538   2.119   3.266   1.008
 1841SOL    HW2 5539   2.255   3.355   1.004
 1842SOL     OW 5540   3.322   3.367   1.339
 1842SOL    HW1 5541   3.346   3.461   1.365
 1842SOL    HW2 5542   3.306   3.313   1.421
 1843SOL     OW 5543   2.300   2.254   1.499
 1843SOL    HW1 5544   2.382   2.198   1.508
 1843SOL    HW2 5545   2.219   2.196   1.503
 1844SOL     OW 5546   3.465   2.309   0.737
 1844SOL    HW1 5547   3.391   2.355   0.687
 1844SOL    HW2 5548   3.516   2.377   0.790
 1845SOL     OW 5549   2.093   3.575   0.483
 1845SOL    HW1 5550   2.127   3.652   0.537
 1845SOL    HW2 5551   2.137   3.575   0.393
 1846SOL     OW 5552   2.989   3.203   1.690
 1846SOL    HW1 5553   3.036   3.203   1.778
 1846SOL    HW2 5554   2.941   3.116   1.679
 1847SOL     OW 5555   2.092   3.296   0.538
 1847SOL    HW1 5556   2.066   3.392   0.538
 1847SOL    HW2 5557   2.021   3.242   0.583
 1848SOL     OW 5558   2.102   2.953   0.886
 1848SOL    HW1 5559   2.116   2.869   0.938
 1848SOL    HW2 5560   2.047   3.017   0.941
 1849SOL     OW 5561   2.482   3.648   1.439
 1849SOL    HW1 5562   2.390   3.631   1.474
 1849SOL    HW2 5563   2.510   3.740   1.465
 1850SOL     OW 5564   2.468   2.826   0.123
 1850SOL    HW1 5565   2.475   2.910   0.069
 1850SOL    HW2 5566   2.514   2.839   0.211
 1851SOL     OW 5567   3.456   1.976   1.480
 1851SOL    HW1 5568   3.438   2.043   1.408
 1851SOL    HW2 5569   3.453   2.022   1.569
 1852SOL     OW 5570   1.984   2.505   0.563
 1852SOL    HW1 5571   1.939   2.417   0.580
 1852SOL    HW2 5572   1.983   2.559   0.647
 1853SOL     OW 5573   3.704   3.629   0.359
 1853SOL    HW1 5574   3.758   3.600   0.439
 1853SOL    HW2 5575   3.734   3.719   0.330
 1854SOL     OW 5576   1.889   3.458   0.117
 1854SOL    HW1 5577   1.870   3.362   0.138
 1854SOL    HW2 5578   1.856   3.516   0.192
 1855SOL     OW 5579   3.551   2.784   0.612
 1855SOL    HW1 5580   3.646   2.755   0.620
 1855SOL    HW2 5581   3.543   2.849   0.537
 1856SOL     OW 5582   3.503   2.970   0.432
 1856SOL    HW1 5583   3.589   2.972   0.380
 1856SOL    HW2 5584   3.517   3.017   0.520
 1857SOL     OW 5585   1.975   2.599   1.597
 1857SOL    HW1 5586   2.063   2.586   1.642
 1857SOL    HW2 5587   1.962   2.696   1.575
 1858SOL     OW 5588   2.475   3.227   0.726
 1858SOL    HW1 5589   2.426   3.140   0.735
 1858SOL    HW2 5590   2.452   3.270   0.639
 1859SOL     OW 5591   3.155   3.090   1.423
 1859SOL    HW1 5592   3.192   3.017   1.365
 1859SOL    HW2 5593   3.207   3.095   1.508
 1860SOL     OW 5594   2.671   1.866   0.502
 1860SOL    HW1 5595   2.711   1.957   0.493
 1860SOL    HW2 5596   2.571   1.874   0.508
 1861SOL     OW 5597   2.059   2.838   1.264
 1861SOL    HW1 5598   2.148   2.793   1.250
 1861SOL    HW2 5599   1.986   2.773   1.245
 1862SOL     OW 5600   3.387   2.861   0.190
 1862SOL    HW1 5601   3.324   2.785   0.203
 1862SOL    HW2 5602   3.435   2.879   0.276
 1863SOL     OW 5603   3.049   3.654   1.616
 1863SOL    HW1 5604   3.073   3.714   1.540
 1863SOL    HW2 5605   3.056   3.559   1.586
 1864SOL     OW 5606   2.179   2.113   1.801
 1864SOL    HW1 5607   2.250   2.184   1.807
 1864SOL    HW2 5608   2.091   2.152   1.829
 1865SOL     OW 5609   3.328   3.279   0.953
 1865SOL    HW1 5610   3.269   3.285   1.033
 1865SOL    HW2 5611   3.313   3.191   0.907
 1866SOL     OW 5612   3.529   3.576   0.572
 1866SOL    HW1 5613   3.488   3.553   0.484
 1866SOL    HW2 5614   3.511   3.502   0.637
 1867SOL     OW 5615   2.460   2.591   0.270
 1867SOL    HW1 5616   2.484   2.660   0.202
 1867SOL    HW2 5617   2.382   2.624   0.324
 1868SOL     OW 5618   3.143   2.207   0.944
 1868SOL    HW1 5619   3.057   2.157   0.931
 1868SOL    HW2 5620   3.205   2.153   1.000
 1869SOL     OW 5621   3.438   3.524   0.307
 1869SOL    HW1 5622   3.527   3.570   0.310
 1869SOL    HW2 5623   3.417   3.500   0.212
 1870SOL     OW 5624   2.669   2.467   1.465
 1870SOL    HW1 5625   2.622   2.464   1.554
 1870SOL    HW2 5626   2.618   2.412   1.399
 1871SOL     OW 5627   3.256   2.331   1.674
 1871SOL    HW1 5628   3.236   2.374   1.762
 1871SOL    HW2 5629   3.334   2.269   1.683
 1872SOL     OW 5630   2.835   2.752   1.572
 1872SOL    HW1 5631   2.881   2.668   1.543
 1872SOL    HW2 5632   2.779   2.786   1.497
 1873SOL     OW 5633   2.853   2.272   1.242
 1873SOL    HW1 5634   2.776   2.306   1.296
 1873SOL    HW2 5635   2.819   2.221   1.163
 1874SOL     OW 5636   2.903   2.563   0.429
 1874SOL    HW1 5637   2.929   2.559   0.525
 1874SOL    HW2 5638   2.818   2.512   0.415
 1875SOL     OW 5639   1.938   2.673   0.789
 1875SOL    HW1 5640   2.037   2.661   0.798
 1875SOL    HW2 5641   1.914   2.768   0.810
 1876SOL     OW 5642   1.992   3.683   1.571
 1876SOL    HW1 5643   1.982   3.668   1.670
 1876SOL    HW2 5644   1.906   3.719   1.535
 1877SOL     OW 5645   2.727   2.210   0.195
 1877SOL    HW1 5646   2.786   2.273   0.146
 1877SOL    HW2 5647   2.746   2.116   0.166
 1878SOL     OW 5648   3.581   2.447   1.831
 1878SOL    HW1 5649   3.555   2.536   1.795
 1878SOL    HW2 5650   3.579   2.379   1.758
 1879SOL     OW 5651   3.224   3.006   0.545
 1879SOL    HW1 5652   3.307   2.977   0.497
 1879SOL    HW2 5653   3.175   3.073   0.489
 1880SOL     OW 5654   2.412   2.058   0.885
 1880SOL    HW1 5655   2.407   2.053   0.985
 1880SOL    HW2 5656   2.414   2.154   0.856
 1881SOL     OW 5657   2.870   3.318   0.477
 1881SOL    HW1 5658   2.824   3.390   0.425
 1881SOL    HW2 5659   2.866   3.338   0.575
 1882SOL     OW 5660   2.213   3.663   0.853
 1882SOL    HW1 5661   2.263   3.577   0.859
 1882SOL    HW2 5662   2.278   3.740   0.850
 1883SOL     OW 5663   3.657   2.928   0.873
 1883SOL    HW1 5664   3.595   2.913   0.797
 1883SOL    HW2 5665   3.605   2.939   0.958
 1884SOL     OW 5666   3.089   3.412   1.506
 1884SOL    HW1 5667   3.095   3.335   1.570
 1884SOL    HW2 5668   3.037   3.386   1.426
 1885SOL     OW 5669   2.183   2.805   0.242
 1885SOL    HW1 5670   2.265   2.844   0.200
 1885SOL    HW2 5671   2.156   2.723   0.193
 1886SOL     OW 5672   3.320   2.597   0.728
 1886SOL    HW1 5673   3.315   2.532   0.803
 1886SOL    HW2 5674   3.400   2.656   0.741
 1887SOL     OW 5675   2.323   3.128   1.727
 1887SOL    HW1 5676   2.273   3.129   1.641
 1887SOL    HW2 5677   2.260   3.110   1.803
 1888SOL     OW 5678   2.973   3.638   0.237
 1888SOL    HW1 5679   2.913   3.576   0.287
 1888SOL    HW2 5680   3.004   3.594   0.152
 1889SOL     OW 5681   2.064   2.147   1.498
 1889SOL    HW1 5682   1.984   2.207   1.485
 1889SOL    HW2 5683   2.054   2.098   1.584
 1890SOL     OW 5684   3.494   3.239   0.081
 1890SOL    HW1 5685   3.462   3.333   0.071
 1890SOL    HW2 5686   3.418   3.176   0.069
 1891SOL     OW 5687   2.326   3.605   0.323
 1891SOL    HW1 5688   2.359   3.644   0.409
 1891SOL    HW2 5689   2.402   3.598   0.258
 1892SOL     OW 5690   3.262   1.969   0.426
 1892SOL    HW1 5691   3.238   1.932   0.336
 1892SOL    HW2 5692   3.361   1.985   0.430
 1893SOL     OW 5693   2.111   3.647   1.241
 1893SOL    HW1 5694   2.168   3.582   1.291
 1893SOL    HW2 5695   2.095   3.614   1.148
 1894SOL     OW 5696   2.802   3.560   0.904
 1894SOL    HW1 5697   2.882   3.503   0.925
 1894SOL    HW2 5698   2.753   3.520   0.827
 1895SOL     OW 5699   2.244   2.562   0.480
 1895SOL    HW1 5700   2.289   2.472   0.477
 1895SOL    HW2 5701   2.150   2.551   0.513
 1896SOL     OW 5702   3.409   2.084   1.729
 1896SOL    HW1 5703   3.404   2.121   1.821
 1896SOL    HW2 5704   3.337   2.015   1.717
 1897SOL     OW 5705   2.643   2.126   1.749
 1897SOL    HW1 5706   2.710   2.065   1.792
 1897SOL    HW2 5707   2.570   2.145   1.814
 1898SOL     OW 5708   2.750   3.376   1.195
 1898SOL    HW1 5709   2.727   3.351   1.101
 1898SOL    HW2 5710   2.811   3.307   1.234
 1899SOL     OW 5711   3.213   2.452   1.433
 1899SOL    HW1 5712   3.241   2.409   1.518
 1899SOL    HW2 5713   3.238   2.548   1.434
 1900SOL     OW 5714   2.665   3.264   0.924
 1900SOL    HW1 5715   2.755   3.278   0.882
 1900SOL    HW2 5716   2.594   3.266   0.853
 1901SOL     OW 5717   2.784   2.365   0.899
 1901SOL    HW1 5718   2.759   2.356   0.803
 1901SOL    HW2 5719   2.832   2.283   0.930
 1902SOL     OW 5720   2.401   1.926   0.512
 1902SOL    HW1 5721   2.320   1.927   0.570
 1902SOL    HW2 5722   2.404   2.009   0.457
 1903SOL     OW 5723   3.296   3.050   0.041
 1903SOL    HW1 5724   3.328   2.974   0.098
 1903SOL    HW2 5725   3.204   3.077   0.071
 1904SOL     OW 5726   2.159   1.897   0.171
 1904SOL    HW1 5727   2.208   1.981   0.150
 1904SOL    HW2 5728   2.221   1.832   0.216
 1905SOL     OW 5729   2.797   2.098   0.480
 1905SOL    HW1 5730   2.749   2.139   0.402
 1905SOL    HW2 5731   2.896   2.096   0.461
 1906SOL     OW 5732   2.938   2.545   1.464
 1906SOL    HW1 5733   2.858   2.484   1.467
 1906SOL    HW2 5734   3.019   2.492   1.440
 1907SOL     OW 5735   3.089   3.432   0.793
 1907SOL    HW1 5736   3.110   3.506   0.728
 1907SOL    HW2 5737   3.157   3.432   0.866
 1908SOL     OW 5738   2.321   3.014   0.741
 1908SOL    HW1 5739   2.250   2.987   0.806
 1908SOL    HW2 5740   2.295   2.986   0.648
 1909SOL     OW 5741   3.133   3.659   0.591
 1909SOL    HW1 5742   3.177   3.723   0.527
 1909SOL    HW2 5743   3.083   3.711   0.661
 1910SOL     OW 5744   2.894   2.411   0.016
 1910SOL    HW1 5745   2.853   2.493  -0.023
 1910SOL    HW2 5746   2.958   2.437   0.089
 1911SOL     OW 5747   1.940   2.418   1.386
 1911SOL    HW1 5748   2.032   2.417   1.345
 1911SOL    HW2 5749   1.934   2.492   1.453
 1912SOL     OW 5750   2.423   2.084   1.147
 1912SOL    HW1 5751   2.461   2.000   1.184
 1912SOL    HW2 5752   2.335   2.103   1.191
 1913SOL     OW 5753   2.728   2.316   0.642
 1913SOL    HW1 5754   2.696   2.388   0.580
 1913SOL    HW2 5755   2.752   2.235   0.589
 1914SOL     OW 5756   2.879   1.901   0.753
 1914SOL    HW1 5757   2.807   1.906   0.684
 1914SOL    HW2 5758   2.855   1.832   0.822
 1915SOL     OW 5759   3.291   3.035   0.867
 1915SOL    HW1 5760   3.236   2.951   0.860
 1915SOL    HW2 5761   3.317   3.064   0.775
 1916SOL     OW 5762   3.328   2.452   0.992
 1916SOL    HW1 5763   3.298   2.357   0.999
 1916SOL    HW2 5764   3.401   2.468   1.058
 1917SOL     OW 5765   3.719   2.695   0.377
 1917SOL    HW1 5766   3.761   2.631   0.441
 1917SOL    HW2 5767   3.681   2.644   0.299
 1918SOL     OW 5768   2.350   3.247   0.174
 1918SOL    HW1 5769   2.263   3.232   0.221
 1918SOL    HW2 5770   2.333   3.273   0.079
 1919SOL     OW 5771   3.526   3.142   0.657
 1919SOL    HW1 5772   3.625   3.150   0.671
 1919SOL    HW2 5773   3.481   3.226   0.688
 1920SOL     OW 5774   3.252   2.437   0.078
 1920SOL    HW1 5775   3.198   2.416   0.159
 1920SOL    HW2 5776   3.343   2.396   0.087
 1921SOL     OW 5777   2.389   2.118   0.328
 1921SOL    HW1 5778   2.416   2.059   0.253
 1921SOL    HW2 5779   2.389   2.213   0.297
 1922SOL     OW 5780   3.616   3.085   1.588
 1922SOL    HW1 5781   3.707   3.046   1.575
 1922SOL    HW2 5782   3.624   3.181   1.612
 1923SOL     OW 5783   2.926   3.209   1.340
 1923SOL    HW1 5784   2.846   3.186   1.395
 1923SOL    HW2 5785   3.009   3.183   1.389
 1924SOL     OW 5786   3.454   3.491   1.625
 1924SOL    HW1 5787   3.481   3.525   1.535
 1924SOL    HW2 5788   3.533   3.453   1.671
 1925SOL     OW 5789   2.973   3.057   1.100
 1925SOL    HW1 5790   2.933   3.101   1.181
 1925SOL    HW2 5791   2.932   3.094   1.017
 1926SOL     OW 5792   3.500   2.961   1.079
 1926SOL    HW1 5793   3.505   3.042   1.138
 1926SOL    HW2 5794   3.414   2.963   1.028
 1927SOL     OW 5795   2.777   1.951   1.402
 1927SOL    HW1 5796   2.802   1.931   1.307
 1927SOL    HW2 5797   2.849   2.007   1.444
 1928SOL     OW 5798   2.842   2.978   1.719
 1928SOL    HW1 5799   2.743   2.984   1.729
 1928SOL    HW2 5800   2.865   2.898   1.663
 1929SOL     OW 5801   2.567   2.912   0.368
 1929SOL    HW1 5802   2.553   2.919   0.467
 1929SOL    HW2 5803   2.651   2.861   0.350
 1930SOL     OW 5804   2.272   2.675   1.251
 1930SOL    HW1 5805   2.358   2.687   1.301
 1930SOL    HW2 5806   2.230   2.588   1.278
 1931SOL     OW 5807   3.136   2.248   1.262
 1931SOL    HW1 5808   3.157   2.322   1.326
 1931SOL    HW2 5809   3.047   2.265   1.219
 1932SOL     OW 5810   1.926   3.426   1.331
 1932SOL    HW1 5811   1.880   3.508   1.297
 1932SOL    HW2 5812   2.024   3.445   1.340
 1933SOL     OW 5813   2.229   2.962   0.501
 1933SOL    HW1 5814   2.222   3.045   0.445
 1933SOL    HW2 5815   2.233   2.882   0.441
 1934SOL     OW 5816   2.428   2.399   0.865
 1934SOL    HW1 5817   2.440   2.465   0.791
 1934SOL    HW2 5818   2.474   2.433   0.948
 1935SOL     OW 5819   3.114   3.210   0.388
 1935SOL    HW1 5820   3.164   3.287   0.428
 1935SOL    HW2 5821   3.019   3.212   0.420
 1936SOL     OW 5822   3.134   3.307   1.142
 1936SOL    HW1 5823   3.181   3.320   1.229
 1936SOL    HW2 5824   3.068   3.233   1.151
 1937SOL     OW 5825   3.444   2.501   0.472
 1937SOL    HW1 5826   3.413   2.562   0.545
 1937SOL    HW2 5827   3.494   2.553   0.403
 1938SOL     OW 5828   2.216   3.372   1.329
 1938SOL    HW1 5829   2.195   3.328   1.242
 1938SOL    HW2 5830   2.313   3.398   1.332
 1939SOL     OW 5831   2.264   2.613   1.598
 1939SOL    HW1 5832   2.332   2.668   1.551
 1939SOL    HW2 5833   2.304   2.525   1.625
 1940SOL     OW 5834   3.449   2.641   1.670
 1940SOL    HW1 5835   3.357   2.679   1.665
 1940SOL    HW2 5836   3.509   2.688   1.605
 1941SOL     OW 5837   2.875   1.967   1.770
 1941SOL    HW1 5838   2.881   2.052   1.718
 1941SOL    HW2 5839   2.907   1.891   1.713
 1942SOL     OW 5840   2.366   1.912   1.740
 1942SOL    HW1 5841   2.324   1.855   1.670
 1942SOL    HW2 5842   2.300   1.981   1.772
 1943SOL     OW 5843   2.435   2.732   1.029
 1943SOL    HW1 5844   2.479   2.821   1.020
 1943SOL    HW2 5845   2.372   2.732   1.106
 1944SOL     OW 5846   3.222   2.724   1.045
 1944SOL    HW1 5847   3.147   2.724   0.979
 1944SOL    HW2 5848   3.259   2.632   1.054
 1945SOL     OW 5849   3.071   2.387   0.275
 1945SOL    HW1 5850   3.084   2.303   0.329
 1945SOL    HW2 5851   3.042   2.461   0.335
 1946SOL     OW 5852   2.169   2.075   1.231
 1946SOL    HW1 5853   2.146   2.112   1.321
 1946SOL    HW2 5854   2.139   1.980   1.225
 1947SOL     OW 5855   1.899   3.172   1.282
 1947SOL    HW1 5856   1.952   3.123   1.350
 1947SOL    HW2 5857   1.921   3.270   1.287
 1948SOL     OW 5858   2.594   2.496   1.064
 1948SOL    HW1 5859   2.653   2.470   0.988
 1948SOL    HW2 5860   2.566   2.592   1.053
 1949SOL     OW 5861   3.590   2.797   1.854
 1949SOL    HW1 5862   3.544   2.790   1.765
 1949SOL    HW2 5863   3.528   2.841   1.920
 1950SOL     OW 5864   2.169   1.925   0.618
 1950SOL    HW1 5865   2.158   2.019   0.651
 1950SOL    HW2 5866   2.164   1.862   0.695
 1951SOL     OW 5867   3.484   2.229   0.374
 1951SOL    HW1 5868   3.486   2.153   0.438
 1951SOL    HW2 5869   3.436   2.306   0.414
 1952SOL     OW 5870   2.885   2.628   0.966
 1952SOL    HW1 5871   2.900   2.649   1.062
 1952SOL    HW2 5872   2.855   2.533   0.957
 1953SOL     OW 5873   2.842   3.435   1.700
 1953SOL    HW1 5874   2.822   3.479   1.612
 1953SOL    HW2 5875   2.881   3.344   1.684
 1954SOL     OW 5876   3.721   3.380   1.605
 1954SOL    HW1 5877   3.735   3.407   1.510
 1954SOL    HW2 5878   3.804   3.402   1.658
 1955SOL     OW 5879   2.212   2.760   1.804
 1955SOL    HW1 5880   2.288   2.804   1.852
 1955SOL    HW2 5881   2.247   2.713   1.722
 1956SOL     OW 5882   3.402   2.136   0.125
 1956SOL    HW1 5883   3.341   2.061   0.148
 1956SOL    HW2 5884   3.424   2.188   0.208
 1957SOL     OW 5885   3.165   2.700   0.042
 1957SOL    HW1 5886   3.199   2.607   0.057
 1957SOL    HW2 5887   3.183   2.727  -0.053
 1958SOL     OW 5888   2.930   3.195   0.849
 1958SOL    HW1 5889   2.937   3.111   0.794
 1958SOL    HW2 5890   2.992   3.264   0.813
 1959SOL     OW 5891   2.181   2.672   0.949
 1959SOL    HW1 5892   2.274   2.708   0.954
 1959SOL    HW2 5893   2.175   2.587   1.001
 1960SOL     OW 5894   2.201   2.371   1.006
 1960SOL    HW1 5895   2.149   2.288   0.989
 1960SOL    HW2 5896   2.278   2.376   0.942
 1961SOL     OW 5897   3.000   2.242   1.678
 1961SOL    HW1 5898   2.955   2.305   1.742
 1961SOL    HW2 5899   3.093   2.273   1.661
 1962SOL     OW 5900   3.022   2.069   1.477
 1962SOL    HW1 5901   3.022   2.133   1.554
 1962SOL    HW2 5902   3.050   2.117   1.394
 1963SOL     OW 5903   1.870   3.188   0.200
 1963SOL    HW1 5904   1.777   3.209   0.169
 1963SOL    HW2 5905   1.880   3.089   0.213
 1964SOL     OW 5906   1.950   3.663   0.927
 1964SOL    HW1 5907   1.908   3.577   0.900
 1964SOL    HW2 5908   2.044   3.666   0.893
 1965SOL     OW 5909   2.366   3.430   0.910
 1965SOL    HW1 5910   2.432   3.504   0.919
 1965SOL    HW2 5911   2.410   3.351   0.868
 1966SOL     OW 5912   2.864   2.658   1.238
 1966SOL    HW1 5913   2.905   2.626   1.324
 1966SOL    HW2 5914   2.768   2.631   1.235
 1967SOL     OW 5915   1.902   2.406   1.114
 1967SOL    HW1 5916   1.987   2.373   1.073
 1967SOL    HW2 5917   1.915   2.421   1.212
 1968SOL     OW 5918   2.051   2.382   1.722
 1968SOL    HW1 5919   2.110   2.342   1.652
 1968SOL    HW2 5920   1.993   2.453   1.681
 1969SOL     OW 5921   3.231   2.812   1.660
 1969SOL    HW1 5922   3.270   2.901   1.680
 1969SOL    HW2 5923   3.241   2.792   1.563
 1970SOL     OW 5924   2.677   2.434   0.325
 1970SOL    HW1 5925   2.684   2.345   0.279
 1970SOL    HW2 5926   2.583   2.468   0.317
 1971SOL     OW 5927   3.519   2.466   1.206
 1971SOL    HW1 5928   3.481   2.397   1.268
 1971SOL    HW2 5929   3.601   2.430   1.162
 1972SOL     OW 5930   2.114   3.426   1.744
 1972SOL    HW1 5931   2.084   3.483   1.820
 1972SOL    HW2 5932   2.107   3.329   1.770
 1973SOL     OW 5933   2.533   2.326   1.269
 1973SOL    HW1 5934   2.499   2.237   1.239
 1973SOL    HW2 5935   2.559   2.380   1.189
 1974SOL     OW 5936   2.792   3.540   1.465
 1974SOL    HW1 5937   2.768   3.522   1.370
 1974SOL    HW2 5938   2.822   3.634   1.475
 1975SOL     OW 5939   2.335   2.362   0.191
 1975SOL    HW1 5940   2.396   2.442   0.195
 1975SOL    HW2 5941   2.240   2.393   0.198
 1976SOL     OW 5942   2.021   2.999   1.466
 1976SOL    HW1 5943   2.043   2.938   1.542
 1976SOL    HW2 5944   2.031   2.950   1.380
 1977SOL     OW 5945   3.209   2.921   1.234
 1977SOL    HW1 5946   3.233   2.858   1.160
 1977SOL    HW2 5947   3.119   2.961   1.216
 1978SOL     OW 5948   3.164   2.717   0.309
 1978SOL    HW1 5949   3.078   2.686   0.351
 1978SOL    HW2 5950   3.160   2.703   0.210
 1979SOL     OW 5951   3.621   3.609   1.154
 1979SOL    HW1 5952   3.682   3.639   1.081
 1979SOL    HW2 5953   3.583   3.520   1.132
 1980SOL     OW 5954   3.114   3.593   1.128
 1980SOL    HW1 5955   3.198   3.598   1.074
 1980SOL    HW2 5956   3.091   3.497   1.146
 1981SOL     OW 5957   1.945   3.120   1.022
 1981SOL    HW1 5958   1.940   3.119   1.122
 1981SOL    HW2 5959   1.862   3.079   0.984
 1982SOL     OW 5960   2.550   3.524   1.716
 1982SOL    HW1 5961   2.494   3.605   1.725
 1982SOL    HW2 5962   2.602   3.528   1.630
 1983SOL     OW 5963   2.765   1.948   0.133
 1983SOL    HW1 5964   2.816   1.949   0.047
 1983SOL    HW2 5965   2.821   1.906   0.204
 1984SOL     OW 5966   3.588   1.997   0.523
 1984SOL    HW1 5967   3.661   1.980   0.456
 1984SOL    HW2 5968   3.557   1.910   0.561
 1985SOL     OW 5969   3.250   3.435   0.477
 1985SOL    HW1 5970   3.317   3.447   0.403
 1985SOL    HW2 5971   3.210   3.524   0.500
 1986SOL     OW 5972   1.992   3.656   1.851
 1986SOL    HW1 5973   1.951   3.582   1.904
 1986SOL    HW2 5974   2.056   3.707   1.909
 1987SOL     OW 5975   3.142   2.789   0.672
 1987SOL    HW1 5976   3.202   2.708   0.674
 1987SOL    HW2 5977   3.182   2.858   0.612
 1988SOL     OW 5978   2.692   3.135   1.422
 1988SOL    HW1 5979   2.687   3.168   1.517
 1988SOL    HW2 5980   2.606   3.154   1.376
 1989SOL     OW 5981   2.534   3.478   0.154
 1989SOL    HW1 5982   2.543   3.488   0.055
 1989SOL    HW2 5983   2.494   3.389   0.175
 1990SOL     OW 5984   3.512   3.582   1.394
 1990SOL    HW1 5985   3.565   3.592   1.310
 1990SOL    HW2 5986   3.485   3.672   1.428
 1991SOL     OW 5987   3.703   2.037   0.963
 1991SOL    HW1 5988   3.742   1.952   0.927
 1991SOL    HW2 5989   3.605   2.039   0.944
 1992SOL     OW 5990   2.125   2.188   0.720
 1992SOL    HW1 5991   2.046   2.239   0.686
 1992SOL    HW2 5992   2.116   2.173   0.818
 1993SOL     OW 5993   3.056   3.474   0.031
 1993SOL    HW1 5994   3.062   3.381   0.068
 1993SOL    HW2 5995   2.997   3.474  -0.049
 1994SOL     OW 5996   2.684   2.864   1.372
 1994SOL    HW1 5997   2.724   2.863   1.280
 1994SOL    HW2 5998   2.694   2.956   1.412
 1995SOL     OW 5999   2.778   2.772   0.291
 1995SOL    HW1 6000   2.841   2.810   0.223
 1995SOL    HW2 6001   2.818   2.689   0.330
 1996SOL     OW 6002   3.366   3.469   0.044
 1996SOL    HW1 6003   3.274   3.506   0.051
 1996SOL    HW2 6004   3.404   3.489  -0.046
 1997SOL     OW 6005   2.234   3.150   1.490
 1997SOL    HW1 6006   2.221   3.243   1.456
 1997SOL    HW2 6007   2.150   3.098   1.477
 1998SOL     OW 6008   3.476   3.154   1.289
 1998SOL    HW1 6009   3.536   3.157   1.369
 1998SOL    HW2 6010   3.401   3.218   1.302
 1999SOL     OW 6011   2.901   2.960   0.696
 1999SOL    HW1 6012   2.831   2.913   0.750
 1999SOL    HW2 6013   2.960   2.892   0.653
 2000SOL     OW 6014   2.876   2.098   0.971
 2000SOL    HW1 6015   2.868   2.062   0.878
 2000SOL    HW2 6016   2.874   2.022   1.036
 2001SOL     OW 6017   2.452   3.349   0.491
 2001SOL    HW1 6018   2.494   3.291   0.421
 2001SOL    HW2 6019   2.408   3.428   0.447
 2002SOL     OW 6020   3.571   2.247   1.381
 2002SOL    HW1 6021   3.644   2.316   1.385
 2002SOL    HW2 6022   3.599   2.172   1.322
 2003SOL     OW 6023   2.117   3.210   0.290
 2003SOL    HW1 6024   2.021   3.211   0.263
 2003SOL    HW2 6025   2.129   3.263   0.374
 2004SOL     OW 6026   1.967   2.875   1.726
 2004SOL    HW1 6027   1.890   2.842   1.780
 2004SOL    HW2 6028   2.052   2.845   1.768
 2005SOL     OW 6029   2.534   2.065   1.489
 2005SOL    HW1 6030   2.624   2.049   1.449
 2005SOL    HW2 6031   2.542   2.070   1.588
 2006SOL     OW 6032   3.302   2.718   1.398
 2006SOL    HW1 6033   3.245   2.770   1.335
 2006SOL    HW2 6034   3.398   2.730   1.374
 2007SOL     OW 6035   1.934   2.028   0.318
 2007SOL    HW1 6036   1.917   2.111   0.264
 2007SOL    HW2 6037   2.024   1.991   0.296
 2008SOL     OW 6038   3.045   3.197   0.119
 2008SOL    HW1 6039   2.946   3.186   0.121
 2008SOL    HW2 6040   3.079   3.212   0.212
 2009SOL     OW 6041   2.475   2.704   1.431
 2009SOL    HW1 6042   2.531   2.785   1.414
 2009SOL    HW2 6043   2.534   2.624   1.434
 2010SOL     OW 6044   3.355   3.629   0.959
 2010SOL    HW1 6045   3.388   3.693   0.890
 2010SOL    HW2 6046   3.421   3.623   1.034
 2011SOL     OW 6047   2.578   2.427   1.708
 2011SOL    HW1 6048   2.597   2.492   1.782
 2011SOL    HW2 6049   2.638   2.347   1.717
 2012SOL     OW 6050   3.312   3.082   1.633
 2012SOL    HW1 6051   3.303   3.072   1.732
 2012SOL    HW2 6052   3.408   3.075   1.607
 2013SOL     OW 6053   2.252   3.603   1.560
 2013SOL    HW1 6054   2.161   3.644   1.558
 2013SOL    HW2 6055   2.245   3.509   1.592
 2014SOL     OW 6056   3.536   2.745   1.254
 2014SOL    HW1 6057   3.509   2.656   1.217
 2014SOL    HW2 6058   3.537   2.813   1.181
 2015SOL     OW 6059   3.087   2.187   0.449
 2015SOL    HW1 6060   3.152   2.113   0.438
 2015SOL    HW2 6061   3.107   2.237   0.533
 2016SOL     OW 6062   2.456   2.607   0.652
 2016SOL    HW1 6063   2.506   2.692   0.633
 2016SOL    HW2 6064   2.368   2.609   0.604
 2017SOL     OW 6065   3.639   2.204   1.642
 2017SOL    HW1 6066   3.622   2.235   1.548
 2017SOL    HW2 6067   3.555   2.167   1.680
 2018SOL     OW 6068   3.592   2.796   1.517
 2018SOL    HW1 6069   3.630   2.887   1.532
 2018SOL    HW2 6070   3.584   2.779   1.418
 2019SOL     OW 6071   2.721   3.236   0.016
 2019SOL    HW1 6072   2.675   3.251   0.104
 2019SOL    HW2 6073   2.765   3.321  -0.014
 2020SOL     OW 6074   2.523   3.652   0.953
 2020SOL    HW1 6075   2.477   3.740   0.940
 2020SOL    HW2 6076   2.622   3.664   0.946
 2021SOL     OW 6077   2.721   2.818   0.861
 2021SOL    HW1 6078   2.775   2.749   0.909
 2021SOL    HW2 6079   2.689   2.887   0.927
 2022SOL     OW 6080   2.945   2.846   0.087
 2022SOL    HW1 6081   2.922   2.899   0.005
 2022SOL    HW2 6082   3.026   2.790   0.068
 2023SOL     OW 6083   3.723   3.431   0.851
 2023SOL    HW1 6084   3.652   3.419   0.781
 2023SOL    HW2 6085   3.724   3.352   0.911
 2024SOL     OW 6086   2.083   3.176   1.844
 2024SOL    HW1 6087   2.018   3.103   1.823
 2024SOL    HW2 6088   2.087   3.190   1.942
 2025SOL     OW 6089   1.941   3.102   0.653
 2025SOL    HW1 6090   1.940   3.055   0.741
 2025SOL    HW2 6091   2.023   3.074   0.602
 2026SOL     OW 6092   2.534   3.253   1.624
 2026SOL    HW1 6093   2.456   3.203   1.662
 2026SOL    HW2 6094   2.531   3.348   1.655
 2027SOL     OW 6095   3.686   2.054   1.227
 2027SOL    HW1 6096   3.682   1.964   1.271
 2027SOL    HW2 6097   3.689   2.043   1.128
 2028SOL     OW 6098   2.290   2.286   0.520
 2028SOL    HW1 6099   2.320   2.214   0.458
 2028SOL    HW2 6100   2.251   2.246   0.603
 2029SOL     OW 6101   3.567   3.349   1.104
 2029SOL    HW1 6102   3.474   3.324   1.077
 2029SOL    HW2 6103   3.593   3.299   1.186
 2030SOL     OW 6104   2.179   2.409   1.280
 2030SOL    HW1 6105   2.217   2.350   1.352
 2030SOL    HW2 6106   2.219   2.383   1.192
 2031SOL     OW 6107   2.674   3.448   0.687
 2031SOL    HW1 6108   2.706   3.458   0.593
 2031SOL    HW2 6109   2.595   3.386   0.689
 2032SOL     OW 6110   3.286   2.076   1.112
 2032SOL    HW1 6111   3.338   2.011   1.167
 2032SOL    HW2 6112   3.237   2.139   1.173
 2033SOL     OW 6113   2.863   1.896   1.154
 2033SOL    HW1 6114   2.800   1.824   1.123
 2033SOL    HW2 6115   2.956   1.860   1.154
 2034SOL     OW 6116   2.632   3.192   0.301
 2034SOL    HW1 6117   2.586   3.105   0.318
 2034SOL    HW2 6118   2.723   3.189   0.342
 2035SOL     OW 6119   2.480   3.429   1.284
 2035SOL    HW1 6120   2.475   3.511   1.341
 2035SOL    HW2 6121   2.569   3.426   1.239
 2036SOL     OW 6122   3.214   1.914   0.168
 2036SOL    HW1 6123   3.249   1.873   0.084
 2036SOL    HW2 6124   3.124   1.876   0.188
 2037SOL     OW 6125   3.162   2.315   0.691
 2037SOL    HW1 6126   3.103   2.395   0.695
 2037SOL    HW2 6127   3.177   2.280   0.784
 2038SOL     OW 6128   3.455   2.083   0.882
 2038SOL    HW1 6129   3.371   2.082   0.936
 2038SOL    HW2 6130   3.457   2.166   0.826
 2039SOL     OW 6131   1.901   2.939   0.300
 2039SOL    HW1 6132   2.000   2.928   0.291
 2039SOL    HW2 6133   1.861   2.853   0.332
 2040SOL     OW 6134   2.737   3.508   0.337
 2040SOL    HW1 6135   2.660   3.473   0.283
 2040SOL    HW2 6136   2.705   3.579   0.399
 2041SOL     OW 6137   2.087   2.137   2.858
 2041SOL    HW1 6138   2.122   2.120   2.950
 2041SOL    HW2 6139   1.999   2.092   2.846
 2042SOL     OW 6140   1.881   2.230   2.509
 2042SOL    HW1 6141   1.799   2.273   2.548
 2042SOL    HW2 6142   1.853   2.157   2.446
 2043SOL     OW 6143   2.431   3.137   3.027
 2043SOL    HW1 6144   2.338   3.130   2.990
 2043SOL    HW2 6145   2.442   3.226   3.071
 2044SOL     OW 6146   3.417   3.373   2.565
 2044SOL    HW1 6147   3.360   3.357   2.646
 2044SOL    HW2 6148   3.358   3.383   2.485
 2045SOL     OW 6149   2.997   2.565   2.579
 2045SOL    HW1 6150   3.054   2.643   2.554
 2045SOL    HW2 6151   2.937   2.591   2.655
 2046SOL     OW 6152   3.617   2.469   2.093
 2046SOL    HW1 6153   3.605   2.456   1.994
 2046SOL    HW2 6154   3.587   2.388   2.142
 2047SOL     OW 6155   2.630   3.006   2.885
 2047SOL    HW1 6156   2.552   3.023   2.945
 2047SOL    HW2 6157   2.664   3.093   2.849
 2048SOL     OW 6158   2.712   2.660   3.685
 2048SOL    HW1 6159   2.708   2.736   3.750
 2048SOL    HW2 6160   2.734   2.696   3.594
 2049SOL     OW 6161   2.547   2.874   2.527
 2049SOL    HW1 6162   2.616   2.858   2.597
 2049SOL    HW2 6163   2.474   2.931   2.565
 2050SOL     OW 6164   2.548   3.023   3.665
 2050SOL    HW1 6165   2.608   3.102   3.679
 2050SOL    HW2 6166   2.462   3.054   3.624
 2051SOL     OW 6167   2.197   3.297   2.923
 2051SOL    HW1 6168   2.119   3.266   2.870
 2051SOL    HW2 6169   2.255   3.355   2.866
 2052SOL     OW 6170   3.322   3.367   3.201
 2052SOL    HW1 6171   3.346   3.461   3.227
 2052SOL    HW2 6172   3.306   3.313   3.283
 2053SOL     OW 6173   2.300   2.254   3.361
 2053SOL    HW1 6174   2.382   2.198   3.370
 2053SOL    HW2 6175   2.219   2.196   3.365
 2054SOL     OW 6176   3.465   2.309   2.599
 2054SOL    HW1 6177   3.391   2.355   2.549
 2054SOL    HW2 6178   3.516   2.377   2.652
 2055SOL     OW 6179   2.093   3.575   2.345
 2055SOL    HW1 6180   2.127   3.652   2.399
 2055SOL    HW2 6181   2.137   3.575   2.255
 2056SOL     OW 6182   2.989   3.203   3.552
 2056SOL    HW1 6183   3.036   3.203   3.640
 2056SOL    HW2 6184   2.941   3.116   3.541
 2057SOL     OW 6185   2.092   3.296   2.400
 2057SOL    HW1 6186   2.066   3.392   2.400
 2057SOL    HW2 6187   2.021   3.242   2.445
 2058SOL     OW 6188   2.102   2.953   2.748
 2058SOL    HW1 6189   2.116   2.869   2.800
 2058SOL    HW2 6190   2.047   3.017   2.803
 2059SOL     OW 6191   2.482   3.648   3.301
 2059SOL    HW1 6192   2.390   3.631   3.336
 2059SOL    HW2 6193   2.510   3.740   3.327
 2060SOL     OW 6194   2.468   2.826   1.985
 2060SOL    HW1 6195   2.475   2.910   1.931
 2060SOL    HW2 6196   2.514   2.839   2.073
 2061SOL     OW 6197   3.456   1.976   3.342
 2061SOL    HW1 6198   3.438   2.043   3.270
 2061SOL    HW2 6199   3.453   2.022   3.431
 2062SOL     OW 6200   1.984   2.505   2.425
 2062SOL    HW1 6201   1.939   2.417   2.442
 2062SOL    HW2 6202   1.983   2.559   2.509
 2063SOL     OW 6203   3.704   3.629   2.221
 2063SOL    HW1 6204   3.758   3.600   2.301
 2063SOL    HW2 6205   3.734   3.719   2.192
 2064SOL     OW 6206   1.889   3.458   1.979
 2064SOL    HW1 6207   1.870   3.362   2.000
 2064SOL    HW2 6208   1.856   3.516   2.054
 2065SOL     OW 6209   3.551   2.784   2.474
 2065SOL    HW1 6210   3.646   2.755   2.482
 2065SOL    HW2 6211   3.543   2.849   2.399
 2066SOL     OW 6212   3.503   2.970   2.294
 2066SOL    HW1 6213   3.589   2.972   2.242
 2066SOL    HW2 6214   3.517   3.017   2.382
 2067SOL     OW 6215   1.975   2.599   3.459
 2067SOL    HW1 6216   2.063   2.586   3.504
 2067SOL    HW2 6217   1.962   2.696   3.437
 2068SOL     OW 6218   2.475   3.227   2.588
 2068SOL    HW1 6219   2.426   3.140   2.597
 2068SOL    HW2 6220   2.452   3.270   2.501
 2069SOL     OW 6221   3.155   3.090   3.285
 2069SOL    HW1 6222   3.192   3.017   3.227
 2069SOL    HW2 6223   3.207   3.095   3.370
 2070SOL     OW 6224   2.671   1.866   2.364
 2070SOL    HW1 6225   2.711   1.957   2.355
 2070SOL    HW2 6226   2.571   1.874   2.370
 2071SOL     OW 6227   2.059   2.838   3.126
 2071SOL    HW1 6228   2.148   2.793   3.112
 2071SOL    HW2 6229   1.986   2.773   3.107
 2072SOL     OW 6230   3.387   2.861   2.052
 2072SOL    HW1 6231   3.324   2.785   2.065
 2072SOL    HW2 6232   3.435   2.879   2.138
 2073SOL     OW 6233   3.049   3.654   3.478
 2073SOL    HW1 6234   3.073   3.714   3.402
 2073SOL    HW2 6235   3.056   3.559   3.448
 2074SOL     OW 6236   2.179   2.113   3.663
 2074SOL    HW1 6237   2.250   2.184   3.669
 2074SOL    HW2 6238   2.091   2.152   3.691
 2075SOL     OW 6239   3.328   3.279   2.815
 2075SOL    HW1 6240   3.269   3.285   2.895
 2075SOL    HW2 6241   3.313   3.191   2.769
 2076SOL     OW 6242   3.529   3.576   2.434
 2076SOL    HW1 6243   3.488   3.553   2.346
 2076SOL    HW2 6244   3.511   3.502   2.499
 2077SOL     OW 6245   2.460   2.591   2.132
 2077SOL    HW1 6246   2.484   2.660   2.064
 2077SOL    HW2 6247   2.382   2.624   2.186
 2078SOL     OW 6248   3.143   2.207   2.806
 2078SOL    HW1 6249   3.057   2.157   2.793
 2078SOL    HW2 6250   3.205   2.153   2.862
 2079SOL     OW 6251   3.438   3.524   2.169
 2079SOL    HW1 6252   3.527   3.570   2.172
 2079SOL    HW2 6253   3.417   3.500   2.074
 2080SOL     OW 6254   2.669   2.467   3.327
 2080SOL    HW1 6255   2.622   2.464   3.416
 2080SOL    HW2 6256   2.618   2.412   3.261
 2081SOL     OW 6257   3.256   2.331   3.536
 2081SOL    HW1 6258   3.236   2.374   3.624
 2081SOL    HW2 6259   3.334   2.269   3.545
 2082SOL     OW 6260   2.835   2.752   3.434
 2082SOL    HW1 6261   2.881   2.668   3.405
 2082SOL    HW2 6262   2.779   2.786   3.359
 2083SOL     OW 6263   2.853   2.272   3.104
 2083SOL    HW1 6264   2.776   2.306   3.158
 2083SOL    HW2 6265   2.819   2.221   3.025
 2084SOL     OW 6266   2.903   2.563   2.291
 2084SOL    HW1 6267   2.929   2.559   2.387
 2084SOL    HW2 6268   2.818   2.512   2.277
 2085SOL     OW 6269   1.938   2.673   2.651
 2085SOL    HW1 6270   2.037   2.661   2.660
 2085SOL    HW2 6271   1.914   2.768   2.672
 2086SOL     OW 6272   1.992   3.683   3.433
 2086SOL    HW1 6273   1.982   3.668   3.532
 2086SOL    HW2 6274   1.906   3.719   3.397
 2087SOL     OW 6275   2.727   2.210   2.057
 2087SOL    HW1 6276   2.786   2.273   2.008
 2087SOL    HW2 6277   2.746   2.116   2.028
 2088SOL     OW 6278   3.581   2.447   3.693
 2088SOL    HW1 6279   3.555   2.536   3.657
 2088SOL    HW2 6280   3.579   2.379   3.620
 2089SOL     OW 6281   3.224   3.006   2.407
 2089SOL    HW1 6282   3.307   2.977   2.359
 2089SOL    HW2 6283   3.175   3.073   2.351
 2090SOL     OW 6284   2.412   2.058   2.747
 2090SOL    HW1 6285   2.407   2.053   2.847
 2090SOL    HW2 6286   2.414   2.154   2.718
 2091SOL     OW 6287   2.870   3.318   2.339
 2091SOL    HW1 6288   2.824   3.390   2.287
 2091SOL    HW2 6289   2.866   3.338   2.437
 2092SOL     OW 6290   2.213   3.663   2.715
 2092SOL    HW1 6291   2.263   3.577   2.721
 2092SOL    HW2 6292   2.278   3.740   2.712
 2093SOL     OW 6293   3.657   2.928   2.735
 2093SOL    HW1 6294   3.595   2.913   2.659
 2093SOL    HW2 6295   3.605   2.939   2.820
 2094SOL     OW 6296   3.089   3.412   3.368
 2094SOL    HW1 6297   3.095   3.335   3.432
 2094SOL    HW2 6298   3.037   3.386   3.288
 2095SOL     OW 6299   2.183   2.805   2.104
 2095SOL    HW1 6300   2.265   2.844   2.062
 2095SOL    HW2 6301   2.156   2.723   2.055
 2096SOL     OW 6302   3.320   2.597   2.590
 2096SOL    HW1 6303   3.315   2.532   2.665
 2096SOL    HW2 6304   3.400   2.656   2.603
 2097SOL     OW 6305   2.323   3.128   3.589
 2097SOL    HW1 6306   2.273   3.129   3.503
 2097SOL    HW2 6307   2.260   3.110   3.665
 2098SOL     OW 6308   2.973   3.638   2.099
 2098SOL    HW1 6309   2.913   3.576   2.149
 2098SOL    HW2 6310   3.004   3.594   2.014
 2099SOL     OW 6311   2.064   2.147   3.360
 2099SOL    HW1 6312   1.984   2.207   3.347
 2099SOL    HW2 6313   2.054   2.098   3.446
 2100SOL     OW 6314   3.494   3.239   1.943
 2100SOL    HW1 6315   3.462   3.333   1.933
 2100SOL    HW2 6316   3.418   3.176   1.931
 2101SOL     OW 6317   2.326   3.605   2.185
 2101SOL    HW1 6318   2.359   3.644   2.271
 2101SOL    HW2 6319   2.402   3.598   2.120
 2102SOL     OW 6320   3.262   1.969   2.288
 2102SOL    HW1 6321   3.238   1.932   2.198
 2102SOL    HW2 6322   3.361   1.985   2.292
 2103SOL     OW 6323   2.111   3.647   3.103
 2103SOL    HW1 6324   2.168   3.582   3.153
 2103SOL    HW2 6325   2.095   3.614   3.010
 2104SOL     OW 6326   2.802   3.560   2.766
 2104SOL    HW1 6327   2.882   3.503   2.787
 2104SOL    HW2 6328   2.753   3.520   2.689
 2105SOL     OW 6329   3.409   2.084   3.591
 2105SOL    HW1 6330   3.404   2.121   3.683
 2105SOL    HW2 6331   3.337   2.015   3.579
 2106SOL     OW 6332   2.476   1.984   1.979
 2106SOL    HW1 6333   2.574   1.962   1.986
 2106SOL    HW2 6334   2.445   1.967   1.886
 2107SOL     OW 6335   2.643   2.126   3.611
 2107SOL    HW1 6336   2.710   2.065   3.654
 2107SOL    HW2 6337   2.570   2.145   3.676
 2108SOL     OW 6338   2.750   3.376   3.057
 2108SOL    HW1 6339   2.727   3.351   2.963
 2108SOL    HW2 6340   2.811   3.307   3.096
 2109SOL     OW 6341   3.213   2.452   3.295
 2109SOL    HW1 6342   3.241   2.409   3.380
 2109SOL    HW2 6343   3.238   2.548   3.296
 2110SOL     OW 6344   2.665   3.264   2.786
 2110SOL    HW1 6345   2.755   3.278   2.744
 2110SOL    HW2 6346   2.594   3.266   2.715
 2111SOL     OW 6347   2.784   2.365   2.761
 2111SOL    HW1 6348   2.759   2.356   2.665
 2111SOL    HW2 6349   2.832   2.283   2.792
 2112SOL     OW 6350   2.401   1.926   2.374
 2112SOL    HW1 6351   2.320   1.927   2.432
 2112SOL    HW2 6352   2.404   2.009   2.319
 2113SOL     OW 6353   3.296   3.050   1.903
 2113SOL    HW1 6354   3.328   2.974   1.960
 2113SOL    HW2 6355   3.204   3.077   1.933
 2114SOL     OW 6356   2.159   1.897   2.033
 2114SOL    HW1 6357   2.208   1.981   2.012
 2114SOL    HW2 6358   2.221   1.832   2.078
 2115SOL     OW 6359   2.938   2.545   3.326
 2115SOL    HW1 6360   2.858   2.484   3.329
 2115SOL    HW2 6361   3.019   2.492   3.302
 2116SOL     OW 6362   3.089   3.432   2.655
 2116SOL    HW1 6363   3.110   3.506   2.590
 2116SOL    HW2 6364   3.157   3.432   2.728
 2117SOL     OW 6365   2.321   3.014   2.603
 2117SOL    HW1 6366   2.250   2.987   2.668
 2117SOL    HW2 6367   2.295   2.986   2.510
 2118SOL     OW 6368   3.133   3.659   2.453
 2118SOL    HW1 6369   3.177   3.723   2.389
 2118SOL    HW2 6370   3.083   3.711   2.523
 2119SOL     OW 6371   2.894   2.411   1.878
 2119SOL    HW1 6372   2.853   2.493   1.839
 2119SOL    HW2 6373   2.958   2.437   1.951
 2120SOL     OW 6374   1.940   2.418   3.248
 2120SOL    HW1 6375   2.032   2.417   3.207
 2120SOL    HW2 6376   1.934   2.492   3.315
 2121SOL     OW 6377   2.423   2.084   3.009
 2121SOL    HW1 6378   2.461   2.000   3.046
 2121SOL    HW2 6379   2.335   2.103   3.053
 2122SOL     OW 6380   2.728   2.316   2.504
 2122SOL    HW1 6381   2.696   2.388   2.442
 2122SOL    HW2 6382   2.752   2.235   2.451
 2123SOL     OW 6383   2.879   1.901   2.615
 2123SOL    HW1 6384   2.807   1.906   2.546
 2123SOL    HW2 6385   2.855   1.832   2.684
 2124SOL     OW 6386   3.291   3.035   2.729
 2124SOL    HW1 6387   3.236   2.951   2.722
 2124SOL    HW2 6388   3.317   3.064   2.637
 2125SOL     OW 6389   3.328   2.452   2.854
 2125SOL    HW1 6390   3.298   2.357   2.861
 2125SOL    HW2 6391   3.401   2.468   2.920
 2126SOL     OW 6392   3.719   2.695   2.239
 2126SOL    HW1 6393   3.761   2.631   2.303
 2126SOL    HW2 6394   3.681   2.644   2.161
 2127SOL     OW 6395   2.350   3.247   2.036
 2127SOL    HW1 6396   2.263   3.232   2.083
 2127SOL    HW2 6397   2.333   3.273   1.941
 2128SOL     OW 6398   3.526   3.142   2.519
 2128SOL    HW1 6399   3.625   3.150   2.533
 2128SOL    HW2 6400   3.481   3.226   2.550
 2129SOL     OW 6401   3.252   2.437   1.940
 2129SOL    HW1 6402   3.198   2.416   2.021
 2129SOL    HW2 6403   3.343   2.396   1.949
 2130SOL     OW 6404   3.616   3.085   3.450
 2130SOL    HW1 6405   3.707   3.046   3.437
 2130SOL    HW2 6406   3.624   3.181   3.474
 2131SOL     OW 6407   2.926   3.209   3.202
 2131SOL    HW1 6408   2.846   3.186   3.257
 2131SOL    HW2 6409   3.009   3.183   3.251
 2132SOL     OW 6410   3.454   3.491   3.487
 2132SOL    HW1 6411   3.481   3.525   3.397
 2132SOL    HW2 6412   3.533   3.453   3.533
 2133SOL     OW 6413   2.973   3.057   2.962
 2133SOL    HW1 6414   2.933   3.101   3.043
 2133SOL    HW2 6415   2.932   3.094   2.879
 2134SOL     OW 6416   3.500   2.961   2.941
 2134SOL    HW1 6417   3.505   3.042   3.000
 2134SOL    HW2 6418   3.414   2.963   2.890
 2135SOL     OW 6419   2.777   1.951   3.264
 2135SOL    HW1 6420   2.802   1.931   3.169
 2135SOL    HW2 6421   2.849   2.007   3.306
 2136SOL     OW 6422   2.842   2.978   3.581
 2136SOL    HW1 6423   2.743   2.984   3.591
 2136SOL    HW2 6424   2.865   2.898   3.525
 2137SOL     OW 6425   2.567   2.912   2.230
 2137SOL    HW1 6426   2.553   2.919   2.329
 2137SOL    HW2 6427   2.651   2.861   2.212
 2138SOL     OW 6428   2.272   2.675   3.113
 2138SOL    HW1 6429   2.358   2.687   3.163
 2138SOL    HW2 6430   2.230   2.588   3.140
 2139SOL     OW 6431   3.136   2.248   3.124
 2139SOL    HW1 6432   3.157   2.322   3.188
 2139SOL    HW2 6433   3.047   2.265   3.081
 2140SOL     OW 6434   1.926   3.426   3.193
 2140SOL    HW1 6435   1.880   3.508   3.159
 2140SOL    HW2 6436   2.024   3.445   3.202
 2141SOL     OW 6437   2.229   2.962   2.363
 2141SOL    HW1 6438   2.222   3.045   2.307
 2141SOL    HW2 6439   2.233   2.882   2.303
 2142SOL     OW 6440   3.114   3.210   2.250
 2142SOL    HW1 6441   3.164   3.287   2.290
 2142SOL    HW2 6442   3.019   3.212   2.282
 2143SOL     OW 6443   3.134   3.307   3.004
 2143SOL    HW1 6444   3.181   3.320   3.091
 2143SOL    HW2 6445   3.068   3.233   3.013
 2144SOL     OW 6446   3.444   2.501   2.334
 2144SOL    HW1 6447   3.413   2.562   2.407
 2144SOL    HW2 6448   3.494   2.553   2.265
 2145SOL     OW 6449   2.216   3.372   3.191
 2145SOL    HW1 6450   2.195   3.328   3.104
 2145SOL    HW2 6451   2.313   3.398   3.194
 2146SOL     OW 6452   2.264   2.613   3.460
 2146SOL    HW1 6453   2.332   2.668   3.413
 2146SOL    HW2 6454   2.304   2.525   3.487
 2147SOL     OW 6455   3.449   2.641   3.532
 2147SOL    HW1 6456   3.357   2.679   3.527
 2147SOL    HW2 6457   3.509   2.688   3.467
 2148SOL     OW 6458   2.875   1.967   3.632
 2148SOL    HW1 6459   2.881   2.052   3.580
 2148SOL    HW2 6460   2.907   1.891   3.575
 2149SOL     OW 6461   2.366   1.912   3.602
 2149SOL    HW1 6462   2.324   1.855   3.532
 2149SOL    HW2 6463   2.300   1.981   3.634
 2150SOL     OW 6464   2.435   2.732   2.891
 2150SOL    HW1 6465   2.479   2.821   2.882
 2150SOL    HW2 6466   2.372   2.732   2.968
 2151SOL     OW 6467   3.222   2.724   2.907
 2151SOL    HW1 6468   3.147   2.724   2.841
 2151SOL    HW2 6469   3.259   2.632   2.916
 2152SOL     OW 6470   3.071   2.387   2.137
 2152SOL    HW1 6471   3.084   2.303   2.191
 2152SOL    HW2 6472   3.042   2.461   2.197
 2153SOL     OW 6473   2.169   2.075   3.093
 2153SOL    HW1 6474   2.146   2.112   3.183
 2153SOL    HW2 6475   2.139   1.980   3.087
 2154SOL     OW 6476   1.899   3.172   3.144
 2154SOL    HW1 6477   1.952   3.123   3.212
 2154SOL    HW2 6478   1.921   3.270   3.149
 2155SOL     OW 6479   2.594   2.496   2.926
 2155SOL    HW1 6480   2.653   2.470   2.850
 2155SOL    HW2 6481   2.566   2.592   2.915
 2156SOL     OW 6482   3.590   2.797   3.716
 2156SOL    HW1 6483   3.544   2.790   3.627
 2156SOL    HW2 6484   3.528   2.841   3.782
 2157SOL     OW 6485   2.169   1.925   2.480
 2157SOL    HW1 6486   2.158   2.019   2.513
 2157SOL    HW2 6487   2.164   1.862   2.557
 2158SOL     OW 6488   3.484   2.229   2.236
 2158SOL    HW1 6489   3.486   2.153   2.300
 2158SOL    HW2 6490   3.436   2.306   2.276
 2159SOL     OW 6491   2.885   2.628   2.828
 2159SOL    HW1 6492   2.900   2.649   2.924
 2159SOL    HW2 6493   2.855   2.533   2.819
 2160SOL     OW 6494   2.842   3.435   3.562
 2160SOL    HW1 6495   2.822   3.479   3.474
 2160SOL    HW2 6496   2.881   3.344   3.546
 2161SOL     OW 6497   3.721   3.380   3.467
 2161SOL    HW1 6498   3.735   3.407   3.372
 2161SOL    HW2 6499   3.804   3.402   3.520
 2162SOL     OW 6500   2.212   2.760   3.666
 2162SOL    HW1 6501   2.288   2.804   3.714
 2162SOL    HW2 6502   2.247   2.713   3.584
 2163SOL     OW 6503   3.402   2.136   1.987
 2163SOL    HW1 6504   3.341   2.061   2.010
 2163SOL    HW2 6505   3.424   2.188   2.070
 2164SOL     OW 6506   3.165   2.700   1.904
 2164SOL    HW1 6507   3.199   2.607   1.919
 2164SOL    HW2 6508   3.183   2.727   1.809
 2165SOL     OW 6509   2.930   3.195   2.711
 2165SOL    HW1 6510   2.937   3.111   2.656
 2165SOL    HW2 6511   2.992   3.264   2.675
 2166SOL     OW 6512   2.181   2.672   2.811
 2166SOL    HW1 6513   2.274   2.708   2.816
 2166SOL    HW2 6514   2.175   2.587   2.863
 2167SOL     OW 6515   2.201   2.371   2.868
 2167SOL    HW1 6516   2.149   2.288   2.851
 2167SOL    HW2 6517   2.278   2.376   2.804
 2168SOL     OW 6518   3.000   2.242   3.540
 2168SOL    HW1 6519   2.955   2.305   3.604
 2168SOL    HW2 6520   3.093   2.273   3.523
 2169SOL     OW 6521   3.022   2.069   3.339
 2169SOL    HW1 6522   3.022   2.133   3.416
 2169SOL    HW2 6523   3.050   2.117   3.256
 2170SOL     OW 6524   1.870   3.188   2.062
 2170SOL    HW1 6525   1.777   3.209   2.031
 2170SOL    HW2 6526   1.880   3.089   2.075
 2171SOL     OW 6527   1.950   3.663   2.789
 2171SOL    HW1 6528   1.908   3.577   2.762
 2171SOL    HW2 6529   2.044   3.666   2.755
 2172SOL     OW 6530   2.366   3.430   2.772
 2172SOL    HW1 6531   2.432   3.504   2.781
 2172SOL    HW2 6532   2.410   3.351   2.730
 2173SOL     OW 6533   2.864   2.658   3.100
 2173SOL    HW1 6534   2.905   2.626   3.186
 2173SOL    HW2 6535   2.768   2.631   3.097
 2174SOL     OW 6536   1.902   2.406   2.976
 2174SOL    HW1 6537   1.987   2.373   2.935
 2174SOL    HW2 6538   1.915   2.421   3.074
 2175SOL     OW 6539   2.051   2.382   3.584
 2175SOL    HW1 6540   2.110   2.342   3.514
 2175SOL    HW2 6541   1.993   2.453   3.543
 2176SOL     OW 6542   3.231   2.812   3.522
 2176SOL    HW1 6543   3.270   2.901   3.542
 2176SOL    HW2 6544   3.241   2.792   3.425
 2177SOL     OW 6545   3.519   2.466   3.068
 2177SOL    HW1 6546   3.481   2.397   3.130
 2177SOL    HW2 6547   3.601   2.430   3.024
 2178SOL     OW 6548   2.114   3.426   3.606
 2178SOL    HW1 6549   2.084   3.483   3.682
 2178SOL    HW2 6550   2.107   3.329   3.632
 2179SOL     OW 6551   2.533   2.326   3.131
 2179SOL    HW1 6552   2.499   2.237   3.101
 2179SOL    HW2 6553   2.559   2.380   3.051
 2180SOL     OW 6554   2.792   3.540   3.327
 2180SOL    HW1 6555   2.768   3.522   3.232
 2180SOL    HW2 6556   2.822   3.634   3.337
 2181SOL     OW 6557   2.021   2.999   3.328
 2181SOL    HW1 6558   2.043   2.938   3.404
 2181SOL    HW2 6559   2.031   2.950   3.242
 2182SOL     OW 6560   3.209   2.921   3.096
 2182SOL    HW1 6561   3.233   2.858   3.022
 2182SOL    HW2 6562   3.119   2.961   3.078
 2183SOL     OW 6563   3.164   2.717   2.171
 2183SOL    HW1 6564   3.078   2.686   2.213
 2183SOL    HW2 6565   3.160   2.703   2.072
 2184SOL     OW 6566   3.621   3.609   3.016
 2184SOL    HW1 6567   3.682   3.639   2.943
 2184SOL    HW2 6568   3.583   3.520   2.994
 2185SOL     OW 6569   3.114   3.593   2.990
 2185SOL    HW1 6570   3.198   3.598   2.936
 2185SOL    HW2 6571   3.091   3.497   3.008
 2186SOL     OW 6572   1.945   3.120   2.884
 2186SOL    HW1 6573   1.940   3.119   2.984
 2186SOL    HW2 6574   1.862   3.079   2.846
 2187SOL     OW 6575   2.550   3.524   3.578
 2187SOL    HW1 6576   2.494   3.605   3.587
 2187SOL    HW2 6577   2.602   3.528   3.492
 2188SOL     OW 6578   3.588   1.997   2.385
 2188SOL    HW1 6579   3.661   1.980   2.318
 2188SOL    HW2 6580   3.557   1.910   2.423
 2189SOL     OW 6581   3.250   3.435   2.339
 2189SOL    HW1 6582   3.317   3.447   2.265
 2189SOL    HW2 6583   3.210   3.524   2.362
 2190SOL     OW 6584   1.992   3.656   3.713
 2190SOL    HW1 6585   1.951   3.582   3.766
 2190SOL    HW2 6586   2.056   3.707   3.771
 2191SOL     OW 6587   3.142   2.789   2.534
 2191SOL    HW1 6588   3.202   2.708   2.536
 2191SOL    HW2 6589   3.182   2.858   2.474
 2192SOL     OW 6590   2.692   3.135   3.284
 2192SOL    HW1 6591   2.687   3.168   3.379
 2192SOL    HW2 6592   2.606   3.154   3.238
 2193SOL     OW 6593   2.534   3.478   2.016
 2193SOL    HW1 6594   2.543   3.488   1.917
 2193SOL    HW2 6595   2.494   3.389   2.037
 2194SOL     OW 6596   3.512   3.582   3.256
 2194SOL    HW1 6597   3.565   3.592   3.172
 2194SOL    HW2 6598   3.485   3.672   3.290
 2195SOL     OW 6599   3.703   2.037   2.825
 2195SOL    HW1 6600   3.742   1.952   2.789
 2195SOL    HW2 6601   3.605   2.039   2.806
 2196SOL     OW 6602   2.125   2.188   2.582
 2196SOL    HW1 6603   2.046   2.239   2.548
 2196SOL    HW2 6604   2.116   2.173   2.680
 2197SOL     OW 6605   3.056   3.474   1.893
 2197SOL    HW1 6606   3.062   3.381   1.930
 2197SOL    HW2 6607   2.997   3.474   1.813
 2198SOL     OW 6608   2.684   2.864   3.234
 2198SOL    HW1 6609   2.724   2.863   3.142
 2198SOL    HW2 6610   2.694   2.956   3.274
 2199SOL     OW 6611   2.778   2.772   2.153
 2199SOL    HW1 6612   2.841   2.810   2.085
 2199SOL    HW2 6613   2.818   2.689   2.192
 2200SOL     OW 6614   3.366   3.469   1.906
 2200SOL    HW1 6615   3.274   3.506   1.913
 2200SOL    HW2 6616   3.404   3.489   1.816
 2201SOL     OW 6617   2.234   3.150   3.352
 2201SOL    HW1 6618   2.221   3.243   3.318
 2201SOL    HW2 6619   2.150   3.098   3.339
 2202SOL     OW 6620   3.476   3.154   3.151
 2202SOL    HW1 6621   3.536   3.157   3.231
 2202SOL    HW2 6622   3.401   3.218   3.164
 2203SOL     OW 6623   2.901   2.960   2.558
 2203SOL    HW1 6624   2.831   2.913   2.612
 2203SOL    HW2 6625   2.960   2.892   2.515
 2204SOL     OW 6626   2.876   2.098   2.833
 2204SOL    HW1 6627   2.868   2.062   2.740
 2204SOL    HW2 6628   2.874   2.022   2.898
 2205SOL     OW 6629   2.452   3.349   2.353
 2205SOL    HW1 6630   2.494   3.291   2.283
 2205SOL    HW2 6631   2.408   3.428   2.309
 2206SOL     OW 6632   3.571   2.247   3.243
 2206SOL    HW1 6633   3.644   2.316   3.247
 2206SOL    HW2 6634   3.599   2.172   3.184
 2207SOL     OW 6635   2.117   3.210   2.152
 2207SOL    HW1 6636   2.021   3.211   2.125
 2207SOL    HW2 6637   2.129   3.263   2.236
 2208SOL     OW 6638   1.967   2.875   3.588
 2208SOL    HW1 6639   1.890   2.842   3.642
 2208SOL    HW2 6640   2.052   2.845   3.630
 2209SOL     OW 6641   2.534   2.065   3.351
 2209SOL    HW1 6642   2.624   2.049   3.311
 2209SOL    HW2 6643   2.542   2.070   3.450
 2210SOL     OW 6644   1.937   2.207   1.895
 2210SOL    HW1 6645   1.845   2.179   1.866
 2210SOL    HW2 6646   1.968   2.284   1.839
 2211SOL     OW 6647   3.302   2.718   3.260
 2211SOL    HW1 6648   3.245   2.770   3.197
 2211SOL    HW2 6649   3.398   2.730   3.236
 2212SOL     OW 6650   1.934   2.028   2.180
 2212SOL    HW1 6651   1.917   2.111   2.126
 2212SOL    HW2 6652   2.024   1.991   2.158
 2213SOL     OW 6653   3.045   3.197   1.981
 2213SOL    HW1 6654   2.946   3.186   1.983
 2213SOL    HW2 6655   3.079   3.212   2.074
 2214SOL     OW 6656   2.475   2.704   3.293
 2214SOL    HW1 6657   2.531   2.785   3.276
 2214SOL    HW2 6658   2.534   2.624   3.296
 2215SOL     OW 6659   3.355   3.629   2.821
 2215SOL    HW1 6660   3.388   3.693   2.752
 2215SOL    HW2 6661   3.421   3.623   2.896
 2216SOL     OW 6662   2.578   2.427   3.570
 2216SOL    HW1 6663   2.597   2.492   3.644
 2216SOL    HW2 6664   2.638   2.347   3.579
 2217SOL     OW 6665   3.312   3.082   3.495
 2217SOL    HW1 6666   3.303   3.072   3.594
 2217SOL    HW2 6667   3.408   3.075   3.469
 2218SOL     OW 6668   2.252   3.603   3.422
 2218SOL    HW1 6669   2.161   3.644   3.420
 2218SOL    HW2 6670   2.245   3.509   3.454
 2219SOL     OW 6671   3.536   2.745   3.116
 2219SOL    HW1 6672   3.509   2.656   3.079
 2219SOL    HW2 6673   3.537   2.813   3.043
 2220SOL     OW 6674   3.087   2.187   2.311
 2220SOL    HW1 6675   3.152   2.113   2.300
 2220SOL    HW2 6676   3.107   2.237   2.395
 2221SOL     OW 6677   2.456   2.607   2.514
 2221SOL    HW1 6678   2.506   2.692   2.495
 2221SOL    HW2 6679   2.368   2.609   2.466
 2222SOL     OW 6680   3.639   2.204   3.504
 2222SOL    HW1 6681   3.622   2.235   3.410
 2222SOL    HW2 6682   3.555   2.167   3.542
 2223SOL     OW 6683   3.592   2.796   3.379
 2223SOL    HW1 6684   3.630   2.887   3.394
 2223SOL    HW2 6685   3.584   2.779   3.280
 2224SOL     OW 6686   2.721   3.236   1.878
 2224SOL    HW1 6687   2.675   3.251   1.966
 2224SOL    HW2 6688   2.765   3.321   1.848
 2225SOL     OW 6689   2.523   3.652   2.815
 2225SOL    HW1 6690   2.477   3.740   2.802
 2225SOL    HW2 6691   2.622   3.664   2.808
 2226SOL     OW 6692   2.721   2.818   2.723
 2226SOL    HW1 6693   2.775   2.749   2.771
 2226SOL    HW2 6694   2.689   2.887   2.789
 2227SOL     OW 6695   2.945   2.846   1.949
 2227SOL    HW1 6696   2.922   2.899   1.867
 2227SOL    HW2 6697   3.026   2.790   1.930
 2228SOL     OW 6698   3.723   3.431   2.713
 2228SOL    HW1 6699   3.652   3.419   2.643
 2228SOL    HW2 6700   3.724   3.352   2.773
 2229SOL     OW 6701   2.083   3.176   3.706
 2229SOL    HW1 6702   2.018   3.103   3.685
 2229SOL    HW2 6703   2.087   3.190   3.804
 2230SOL     OW 6704   1.941   3.102   2.515
 2230SOL    HW1 6705   1.940   3.055   2.603
 2230SOL    HW2 6706   2.023   3.074   2.464
 2231SOL     OW 6707   2.534   3.253   3.486
 2231SOL    HW1 6708   2.456   3.203   3.524
 2231SOL    HW2 6709   2.531   3.348   3.517
 2232SOL     OW 6710   3.686   2.054   3.089
 2232SOL    HW1 6711   3.682   1.964   3.133
 2232SOL    HW2 6712   3.689   2.043   2.990
 2233SOL     OW 6713   3.567   3.349   2.966
 2233SOL    HW1 6714   3.474   3.324   2.939
 2233SOL    HW2 6715   3.593   3.299   3.048
 2234SOL     OW 6716   2.179   2.409   3.142
 2234SOL    HW1 6717   2.217   2.350   3.214
 2234SOL    HW2 6718   2.219   2.383   3.054
 2235SOL     OW 6719   2.674   3.448   2.549
 2235SOL    HW1 6720   2.706   3.458   2.455
 2235SOL    HW2 6721   2.595   3.386   2.551
 2236SOL     OW 6722   3.286   2.076   2.974
 2236SOL    HW1 6723   3.338   2.011   3.029
 2236SOL    HW2 6724   3.237   2.139   3.035
 2237SOL     OW 6725   2.863   1.896   3.016
 2237SOL    HW1 6726   2.800   1.824   2.985
 2237SOL    HW2 6727   2.956   1.860   3.016
 2238SOL     OW 6728   2.632   3.192   2.163
 2238SOL    HW1 6729   2.586   3.105   2.180
 2238SOL    HW2 6730   2.723   3.189   2.204
 2239SOL     OW 6731   2.480   3.429   3.146
 2239SOL    HW1 6732   2.475   3.511   3.203
 2239SOL    HW2 6733   2.569   3.426   3.101
 2240SOL     OW 6734   3.214   1.914   2.030
 2240SOL    HW1 6735   3.249   1.873   1.946
 2240SOL    HW2 6736   3.124   1.876   2.050
 2241SOL     OW 6737   3.162   2.315   2.553
 2241SOL    HW1 6738   3.103   2.395   2.557
 2241SOL    HW2 6739   3.177   2.280   2.646
 2242SOL     OW 6740   3.455   2.083   2.744
 2242SOL    HW1 6741   3.371   2.082   2.798
 2242SOL    HW2 6742   3.457   2.166   2.688
 2243SOL     OW 6743   1.901   2.939   2.162
 2243SOL    HW1 6744   2.000   2.928   2.153
 2243SOL    HW2 6745   1.861   2.853   2.194
 2244SOL     OW 6746   2.737   3.508   2.199
 2244SOL    HW1 6747   2.660   3.473   2.145
 2244SOL    HW2 6748   2.705   3.579   2.261
 2245SOL     OW 6749   2.092   2.490   3.837
 2245SOL    HW1 6750   1.999   2.488   3.874
 2245SOL    HW2 6751   2.093   2.451   3.745
 2246SOL     OW 6752   2.087   2.137   4.720
 2246SOL    HW1 6753   2.122   2.120   4.812
 2246SOL    HW2 6754   1.999   2.092   4.708
 2247SOL     OW 6755   1.881   2.230   4.371
 2247SOL    HW1 6756   1.799   2.273   4.410
 2247SOL    HW2 6757   1.853   2.157   4.308
 2248SOL     OW 6758   3.417   3.373   4.427
 2248SOL    HW1 6759   3.360   3.357   4.508
 2248SOL    HW2 6760   3.358   3.383   4.347
 2249SOL     OW 6761   2.997   2.565   4.441
 2249SOL    HW1 6762   3.054   2.643   4.416
 2249SOL    HW2 6763   2.937   2.591   4.517
 2250SOL     OW 6764   3.617   2.469   3.955
 2250SOL    HW1 6765   3.605   2.456   3.856
 2250SOL    HW2 6766   3.587   2.388   4.004
 2251SOL     OW 6767   2.630   3.006   4.747
 2251SOL    HW1 6768   2.552   3.023   4.807
 2251SOL    HW2 6769   2.664   3.093   4.711
 2252SOL     OW 6770   2.547   2.874   4.389
 2252SOL    HW1 6771   2.616   2.858   4.459
 2252SOL    HW2 6772   2.474   2.931   4.427
 2253SOL     OW 6773   3.465   2.309   4.461
 2253SOL    HW1 6774   3.391   2.355   4.411
 2253SOL    HW2 6775   3.516   2.377   4.514
 2254SOL     OW 6776   2.093   3.575   4.207
 2254SOL    HW1 6777   2.127   3.652   4.261
 2254SOL    HW2 6778   2.137   3.575   4.117
 2255SOL     OW 6779   2.092   3.296   4.262
 2255SOL    HW1 6780   2.066   3.392   4.262
 2255SOL    HW2 6781   2.021   3.242   4.307
 2256SOL     OW 6782   2.102   2.953   4.610
 2256SOL    HW1 6783   2.116   2.869   4.662
 2256SOL    HW2 6784   2.047   3.017   4.665
 2257SOL     OW 6785   2.468   2.826   3.847
 2257SOL    HW1 6786   2.475   2.910   3.793
 2257SOL    HW2 6787   2.514   2.839   3.935
 2258SOL     OW 6788   1.984   2.505   4.287
 2258SOL    HW1 6789   1.939   2.417   4.304
 2258SOL    HW2 6790   1.983   2.559   4.371
 2259SOL     OW 6791   3.704   3.629   4.083
 2259SOL    HW1 6792   3.758   3.600   4.163
 2259SOL    HW2 6793   3.734   3.719   4.054
 2260SOL     OW 6794   1.889   3.458   3.841
 2260SOL    HW1 6795   1.870   3.362   3.862
 2260SOL    HW2 6796   1.856   3.516   3.916
 2261SOL     OW 6797   3.551   2.784   4.336
 2261SOL    HW1 6798   3.646   2.755   4.344
 2261SOL    HW2 6799   3.543   2.849   4.261
 2262SOL     OW 6800   3.503   2.970   4.156
 2262SOL    HW1 6801   3.589   2.972   4.104
 2262SOL    HW2 6802   3.517   3.017   4.244
 2263SOL     OW 6803   2.475   3.227   4.450
 2263SOL    HW1 6804   2.426   3.140   4.459
 2263SOL    HW2 6805   2.452   3.270   4.363
 2264SOL     OW 6806   2.671   1.866   4.226
 2264SOL    HW1 6807   2.711   1.957   4.217
 2264SOL    HW2 6808   2.571   1.874   4.232
 2265SOL     OW 6809   3.387   2.861   3.914
 2265SOL    HW1 6810   3.324   2.785   3.927
 2265SOL    HW2 6811   3.435   2.879   4.000
 2266SOL     OW 6812   3.529   3.576   4.296
 2266SOL    HW1 6813   3.488   3.553   4.208
 2266SOL    HW2 6814   3.511   3.502   4.361
 2267SOL     OW 6815   2.460   2.591   3.994
 2267SOL    HW1 6816   2.484   2.660   3.926
 2267SOL    HW2 6817   2.382   2.624   4.048
 2268SOL     OW 6818   3.143   2.207   4.668
 2268SOL    HW1 6819   3.057   2.157   4.655
 2268SOL    HW2 6820   3.205   2.153   4.724
 2269SOL     OW 6821   3.438   3.524   4.031
 2269SOL    HW1 6822   3.527   3.570   4.034
 2269SOL    HW2 6823   3.417   3.500   3.936
 2270SOL     OW 6824   2.903   2.563   4.153
 2270SOL    HW1 6825   2.929   2.559   4.249
 2270SOL    HW2 6826   2.818   2.512   4.139
 2271SOL     OW 6827   1.938   2.673   4.513
 2271SOL    HW1 6828   2.037   2.661   4.522
 2271SOL    HW2 6829   1.914   2.768   4.534
 2272SOL     OW 6830   2.727   2.210   3.919
 2272SOL    HW1 6831   2.786   2.273   3.870
 2272SOL    HW2 6832   2.746   2.116   3.890
 2273SOL     OW 6833   3.224   3.006   4.269
 2273SOL    HW1 6834   3.307   2.977   4.221
 2273SOL    HW2 6835   3.175   3.073   4.213
 2274SOL     OW 6836   2.412   2.058   4.609
 2274SOL    HW1 6837   2.407   2.053   4.709
 2274SOL    HW2 6838   2.414   2.154   4.580
 2275SOL     OW 6839   2.870   3.318   4.201
 2275SOL    HW1 6840   2.824   3.390   4.149
 2275SOL    HW2 6841   2.866   3.338   4.299
 2276SOL     OW 6842   2.213   3.663   4.577
 2276SOL    HW1 6843   2.263   3.577   4.583
 2276SOL    HW2 6844   2.278   3.740   4.574
 2277SOL     OW 6845   3.657   2.928   4.597
 2277SOL    HW1 6846   3.595   2.913   4.521
 2277SOL    HW2 6847   3.605   2.939   4.682
 2278SOL     OW 6848   2.183   2.805   3.966
 2278SOL    HW1 6849   2.265   2.844   3.924
 2278SOL    HW2 6850   2.156   2.723   3.917
 2279SOL     OW 6851   3.320   2.597   4.452
 2279SOL    HW1 6852   3.315   2.532   4.527
 2279SOL    HW2 6853   3.400   2.656   4.465
 2280SOL     OW 6854   2.973   3.638   3.961
 2280SOL    HW1 6855   2.913   3.576   4.011
 2280SOL    HW2 6856   3.004   3.594   3.876
 2281SOL     OW 6857   3.494   3.239   3.805
 2281SOL    HW1 6858   3.462   3.333   3.795
 2281SOL    HW2 6859   3.418   3.176   3.793
 2282SOL     OW 6860   2.326   3.605   4.047
 2282SOL    HW1 6861   2.359   3.644   4.133
 2282SOL    HW2 6862   2.402   3.598   3.982
 2283SOL     OW 6863   3.262   1.969   4.150
 2283SOL    HW1 6864   3.238   1.932   4.060
 2283SOL    HW2 6865   3.361   1.985   4.154
 2284SOL     OW 6866   2.244   2.562   4.204
 2284SOL    HW1 6867   2.289   2.472   4.201
 2284SOL    HW2 6868   2.150   2.551   4.237
 2285SOL     OW 6869   2.476   1.984   3.841
 2285SOL    HW1 6870   2.574   1.962   3.848
 2285SOL    HW2 6871   2.445   1.967   3.748
 2286SOL     OW 6872   2.401   1.926   4.236
 2286SOL    HW1 6873   2.320   1.927   4.294
 2286SOL    HW2 6874   2.404   2.009   4.181
 2287SOL     OW 6875   3.296   3.050   3.765
 2287SOL    HW1 6876   3.328   2.974   3.822
 2287SOL    HW2 6877   3.204   3.077   3.795
 2288SOL     OW 6878   2.159   1.897   3.895
 2288SOL    HW1 6879   2.208   1.981   3.874
 2288SOL    HW2 6880   2.221   1.832   3.940
 2289SOL     OW 6881   2.797   2.098   4.204
 2289SOL    HW1 6882   2.749   2.139   4.126
 2289SOL    HW2 6883   2.896   2.096   4.185
 2290SOL     OW 6884   2.321   3.014   4.465
 2290SOL    HW1 6885   2.250   2.987   4.530
 2290SOL    HW2 6886   2.295   2.986   4.372
 2291SOL     OW 6887   3.133   3.659   4.315
 2291SOL    HW1 6888   3.177   3.723   4.251
 2291SOL    HW2 6889   3.083   3.711   4.385
 2292SOL     OW 6890   2.894   2.411   3.740
 2292SOL    HW1 6891   2.853   2.493   3.701
 2292SOL    HW2 6892   2.958   2.437   3.813
 2293SOL     OW 6893   2.728   2.316   4.366
 2293SOL    HW1 6894   2.696   2.388   4.304
 2293SOL    HW2 6895   2.752   2.235   4.313
 2294SOL     OW 6896   2.879   1.901   4.477
 2294SOL    HW1 6897   2.807   1.906   4.408
 2294SOL    HW2 6898   2.855   1.832   4.546
 2295SOL     OW 6899   3.719   2.695   4.101
 2295SOL    HW1 6900   3.761   2.631   4.165
 2295SOL    HW2 6901   3.681   2.644   4.023
 2296SOL     OW 6902   2.350   3.247   3.898
 2296SOL    HW1 6903   2.263   3.232   3.945
 2296SOL    HW2 6904   2.333   3.273   3.803
 2297SOL     OW 6905   3.526   3.142   4.381
 2297SOL    HW1 6906   3.625   3.150   4.395
 2297SOL    HW2 6907   3.481   3.226   4.412
 2298SOL     OW 6908   3.252   2.437   3.802
 2298SOL    HW1 6909   3.198   2.416   3.883
 2298SOL    HW2 6910   3.343   2.396   3.811
 2299SOL     OW 6911   2.389   2.118   4.052
 2299SOL    HW1 6912   2.416   2.059   3.977
 2299SOL    HW2 6913   2.389   2.213   4.021
 2300SOL     OW 6914   2.567   2.912   4.092
 2300SOL    HW1 6915   2.553   2.919   4.191
 2300SOL    HW2 6916   2.651   2.861   4.074
 2301SOL     OW 6917   2.229   2.962   4.225
 2301SOL    HW1 6918   2.222   3.045   4.169
 2301SOL    HW2 6919   2.233   2.882   4.165
 2302SOL     OW 6920   2.428   2.399   4.589
 2302SOL    HW1 6921   2.440   2.465   4.515
 2302SOL    HW2 6922   2.474   2.433   4.672
 2303SOL     OW 6923   3.114   3.210   4.112
 2303SOL    HW1 6924   3.164   3.287   4.152
 2303SOL    HW2 6925   3.019   3.212   4.144
 2304SOL     OW 6926   3.444   2.501   4.196
 2304SOL    HW1 6927   3.413   2.562   4.269
 2304SOL    HW2 6928   3.494   2.553   4.127
 2305SOL     OW 6929   3.071   2.387   3.999
 2305SOL    HW1 6930   3.084   2.303   4.053
 2305SOL    HW2 6931   3.042   2.461   4.059
 2306SOL     OW 6932   2.169   1.925   4.342
 2306SOL    HW1 6933   2.158   2.019   4.375
 2306SOL    HW2 6934   2.164   1.862   4.419
 2307SOL     OW 6935   3.484   2.229   4.098
 2307SOL    HW1 6936   3.486   2.153   4.162
 2307SOL    HW2 6937   3.436   2.306   4.138
 2308SOL     OW 6938   3.402   2.136   3.849
 2308SOL    HW1 6939   3.341   2.061   3.872
 2308SOL    HW2 6940   3.424   2.188   3.932
 2309SOL     OW 6941   3.165   2.700   3.766
 2309SOL    HW1 6942   3.199   2.607   3.781
 2309SOL    HW2 6943   3.183   2.727   3.671
 2310SOL     OW 6944   2.930   3.195   4.573
 2310SOL    HW1 6945   2.937   3.111   4.518
 2310SOL    HW2 6946   2.992   3.264   4.537
 2311SOL     OW 6947   1.870   3.188   3.924
 2311SOL    HW1 6948   1.777   3.209   3.893
 2311SOL    HW2 6949   1.880   3.089   3.937
 2312SOL     OW 6950   1.950   3.663   4.651
 2312SOL    HW1 6951   1.908   3.577   4.624
 2312SOL    HW2 6952   2.044   3.666   4.617
 2313SOL     OW 6953   2.677   2.434   4.049
 2313SOL    HW1 6954   2.684   2.345   4.003
 2313SOL    HW2 6955   2.583   2.468   4.041
 2314SOL     OW 6956   2.335   2.362   3.915
 2314SOL    HW1 6957   2.396   2.442   3.919
 2314SOL    HW2 6958   2.240   2.393   3.922
 2315SOL     OW 6959   3.164   2.717   4.033
 2315SOL    HW1 6960   3.078   2.686   4.075
 2315SOL    HW2 6961   3.160   2.703   3.934
 2316SOL     OW 6962   3.588   1.997   4.247
 2316SOL    HW1 6963   3.661   1.980   4.180
 2316SOL    HW2 6964   3.557   1.910   4.285
 2317SOL     OW 6965   3.250   3.435   4.201
 2317SOL    HW1 6966   3.317   3.447   4.127
 2317SOL    HW2 6967   3.210   3.524   4.224
 2318SOL     OW 6968   3.142   2.789   4.396
 2318SOL    HW1 6969   3.202   2.708   4.398
 2318SOL    HW2 6970   3.182   2.858   4.336
 2319SOL     OW 6971   2.534   3.478   3.878
 2319SOL    HW1 6972   2.543   3.488   3.779
 2319SOL    HW2 6973   2.494   3.389   3.899
 2320SOL     OW 6974   3.703   2.037   4.687
 2320SOL    HW1 6975   3.742   1.952   4.651
 2320SOL    HW2 6976   3.605   2.039   4.668
 2321SOL     OW 6977   2.125   2.188   4.444
 2321SOL    HW1 6978   2.046   2.239   4.410
 2321SOL    HW2 6979   2.116   2.173   4.542
 2322SOL     OW 6980   3.056   3.474   3.755
 2322SOL    HW1 6981   3.062   3.381   3.792
 2322SOL    HW2 6982   2.997   3.474   3.675
 2323SOL     OW 6983   2.778   2.772   4.015
 2323SOL    HW1 6984   2.841   2.810   3.947
 2323SOL    HW2 6985   2.818   2.689   4.054
 2324SOL     OW 6986   3.366   3.469   3.768
 2324SOL    HW1 6987   3.274   3.506   3.775
 2324SOL    HW2 6988   3.404   3.489   3.678
 2325SOL     OW 6989   2.901   2.960   4.420
 2325SOL    HW1 6990   2.831   2.913   4.474
 2325SOL    HW2 6991   2.960   2.892   4.377
 2326SOL     OW 6992   2.452   3.349   4.215
 2326SOL    HW1 6993   2.494   3.291   4.145
 2326SOL    HW2 6994   2.408   3.428   4.171
 2327SOL     OW 6995   2.117   3.210   4.014
 2327SOL    HW1 6996   2.021   3.211   3.987
 2327SOL    HW2 6997   2.129   3.263   4.098
 2328SOL     OW 6998   1.937   2.207   3.757
 2328SOL    HW1 6999   1.845   2.179   3.728
 2328SOL    HW2 7000   1.968   2.284   3.701
 2329SOL     OW 7001   1.934   2.028   4.042
 2329SOL    HW1 7002   1.917   2.111   3.988
 2329SOL    HW2 7003   2.024   1.991   4.020
 2330SOL     OW 7004   3.045   3.197   3.843
 2330SOL    HW1 7005   2.946   3.186   3.845
 2330SOL    HW2 7006   3.079   3.212   3.936
 2331SOL     OW 7007   3.087   2.187   4.173
 2331SOL    HW1 7008   3.152   2.113   4.162
 2331SOL    HW2 7009   3.107   2.237   4.257
 2332SOL     OW 7010   2.456   2.607   4.376
 2332SOL    HW1 7011   2.506   2.692   4.357
 2332SOL    HW2 7012   2.368   2.609   4.328
 2333SOL     OW 7013   2.721   3.236   3.740
 2333SOL    HW1 7014   2.675   3.251   3.828
 2333SOL    HW2 7015   2.765   3.321   3.710
 2334SOL     OW 7016   2.523   3.652   4.677
 2334SOL    HW1 7017   2.477   3.740   4.664
 2334SOL    HW2 7018   2.622   3.664   4.670
 2335SOL     OW 7019   2.721   2.818   4.585
 2335SOL    HW1 7020   2.775   2.749   4.633
 2335SOL    HW2 7021   2.689   2.887   4.651
 2336SOL     OW 7022   2.945   2.846   3.811
 2336SOL    HW1 7023   2.922   2.899   3.729
 2336SOL    HW2 7024   3.026   2.790   3.792
 2337SOL     OW 7025   3.723   3.431   4.575
 2337SOL    HW1 7026   3.652   3.419   4.505
 2337SOL    HW2 7027   3.724   3.352   4.635
 2338SOL     OW 7028   1.941   3.102   4.377
 2338SOL    HW1 7029   1.940   3.055   4.465
 2338SOL    HW2 7030   2.023   3.074   4.326
 2339SOL     OW 7031   2.290   2.286   4.244
 2339SOL    HW1 7032   2.320   2.214   4.182
 2339SOL    HW2 7033   2.251   2.246   4.327
 2340SOL     OW 7034   2.674   3.448   4.411
 2340SOL    HW1 7035   2.706   3.458   4.317
 2340SOL    HW2 7036   2.595   3.386   4.413
 2341SOL     OW 7037   2.632   3.192   4.025
 2341SOL    HW1 7038   2.586   3.105   4.042
 2341SOL    HW2 7039   2.723   3.189   4.066
 2342SOL     OW 7040   3.214   1.914   3.892
 2342SOL    HW1 7041   3.249   1.873   3.808
 2342SOL    HW2 7042   3.124   1.876   3.912
 2343SOL     OW 7043   3.162   2.315   4.415
 2343SOL    HW1 7044   3.103   2.395   4.419
 2343SOL    HW2 7045   3.177   2.280   4.508
 2344SOL     OW 7046   1.901   2.939   4.024
 2344SOL    HW1 7047   2.000   2.928   4.015
 2344SOL    HW2 7048   1.861   2.853   4.056
 2345SOL     OW 7049   2.737   3.508   4.061
 2345SOL    HW1 7050   2.660   3.473   4.007
 2345SOL    HW2 7051   2.705   3.579   4.123
 2346SOL     OW 7052   2.092   4.352   0.113
 2346SOL    HW1 7053   1.999   4.350   0.150
 2346SOL    HW2 7054   2.093   4.313   0.021
 2347SOL     OW 7055   2.087   3.999   0.996
 2347SOL    HW1 7056   2.122   3.982   1.088
 2347SOL    HW2 7057   1.999   3.954   0.984
 2348SOL     OW 7058   1.881   4.092   0.647
 2348SOL    HW1 7059   1.799   4.135   0.686
 2348SOL    HW2 7060   1.853   4.019   0.584
 2349SOL     OW 7061   2.997   4.427   0.717
 2349SOL    HW1 7062   3.054   4.505   0.692
 2349SOL    HW2 7063   2.937   4.453   0.793
 2350SOL     OW 7064   3.617   4.331   0.231
 2350SOL    HW1 7065   3.605   4.318   0.132
 2350SOL    HW2 7066   3.587   4.250   0.280
 2351SOL     OW 7067   2.712   4.522   1.823
 2351SOL    HW1 7068   2.708   4.598   1.888
 2351SOL    HW2 7069   2.734   4.558   1.732
 2352SOL     OW 7070   2.547   4.736   0.665
 2352SOL    HW1 7071   2.616   4.720   0.735
 2352SOL    HW2 7072   2.474   4.793   0.703
 2353SOL     OW 7073   2.300   4.116   1.499
 2353SOL    HW1 7074   2.382   4.060   1.508
 2353SOL    HW2 7075   2.219   4.058   1.503
 2354SOL     OW 7076   3.465   4.171   0.737
 2354SOL    HW1 7077   3.391   4.217   0.687
 2354SOL    HW2 7078   3.516   4.239   0.790
 2355SOL     OW 7079   3.456   3.838   1.480
 2355SOL    HW1 7080   3.438   3.905   1.408
 2355SOL    HW2 7081   3.453   3.884   1.569
 2356SOL     OW 7082   1.984   4.367   0.563
 2356SOL    HW1 7083   1.939   4.279   0.580
 2356SOL    HW2 7084   1.983   4.421   0.647
 2357SOL     OW 7085   1.975   4.461   1.597
 2357SOL    HW1 7086   2.063   4.448   1.642
 2357SOL    HW2 7087   1.962   4.558   1.575
 2358SOL     OW 7088   2.671   3.728   0.502
 2358SOL    HW1 7089   2.711   3.819   0.493
 2358SOL    HW2 7090   2.571   3.736   0.508
 2359SOL     OW 7091   2.179   3.975   1.801
 2359SOL    HW1 7092   2.250   4.046   1.807
 2359SOL    HW2 7093   2.091   4.014   1.829
 2360SOL     OW 7094   2.460   4.453   0.270
 2360SOL    HW1 7095   2.484   4.522   0.202
 2360SOL    HW2 7096   2.382   4.486   0.324
 2361SOL     OW 7097   3.143   4.069   0.944
 2361SOL    HW1 7098   3.057   4.019   0.931
 2361SOL    HW2 7099   3.205   4.015   1.000
 2362SOL     OW 7100   2.669   4.329   1.465
 2362SOL    HW1 7101   2.622   4.326   1.554
 2362SOL    HW2 7102   2.618   4.274   1.399
 2363SOL     OW 7103   3.256   4.193   1.674
 2363SOL    HW1 7104   3.236   4.236   1.762
 2363SOL    HW2 7105   3.334   4.131   1.683
 2364SOL     OW 7106   2.853   4.134   1.242
 2364SOL    HW1 7107   2.776   4.168   1.296
 2364SOL    HW2 7108   2.819   4.083   1.163
 2365SOL     OW 7109   2.903   4.425   0.429
 2365SOL    HW1 7110   2.929   4.421   0.525
 2365SOL    HW2 7111   2.818   4.374   0.415
 2366SOL     OW 7112   1.938   4.535   0.789
 2366SOL    HW1 7113   2.037   4.523   0.798
 2366SOL    HW2 7114   1.914   4.630   0.810
 2367SOL     OW 7115   2.727   4.072   0.195
 2367SOL    HW1 7116   2.786   4.135   0.146
 2367SOL    HW2 7117   2.746   3.978   0.166
 2368SOL     OW 7118   3.581   4.309   1.831
 2368SOL    HW1 7119   3.555   4.398   1.795
 2368SOL    HW2 7120   3.579   4.241   1.758
 2369SOL     OW 7121   2.412   3.920   0.885
 2369SOL    HW1 7122   2.407   3.915   0.985
 2369SOL    HW2 7123   2.414   4.016   0.856
 2370SOL     OW 7124   3.320   4.459   0.728
 2370SOL    HW1 7125   3.315   4.394   0.803
 2370SOL    HW2 7126   3.400   4.518   0.741
 2371SOL     OW 7127   2.064   4.009   1.498
 2371SOL    HW1 7128   1.984   4.069   1.485
 2371SOL    HW2 7129   2.054   3.960   1.584
 2372SOL     OW 7130   3.262   3.831   0.426
 2372SOL    HW1 7131   3.238   3.794   0.336
 2372SOL    HW2 7132   3.361   3.847   0.430
 2373SOL     OW 7133   2.244   4.424   0.480
 2373SOL    HW1 7134   2.289   4.334   0.477
 2373SOL    HW2 7135   2.150   4.413   0.513
 2374SOL     OW 7136   3.409   3.946   1.729
 2374SOL    HW1 7137   3.404   3.983   1.821
 2374SOL    HW2 7138   3.337   3.877   1.717
 2375SOL     OW 7139   2.643   3.988   1.749
 2375SOL    HW1 7140   2.710   3.927   1.792
 2375SOL    HW2 7141   2.570   4.007   1.814
 2376SOL     OW 7142   3.213   4.314   1.433
 2376SOL    HW1 7143   3.241   4.271   1.518
 2376SOL    HW2 7144   3.238   4.410   1.434
 2377SOL     OW 7145   2.784   4.227   0.899
 2377SOL    HW1 7146   2.759   4.218   0.803
 2377SOL    HW2 7147   2.832   4.145   0.930
 2378SOL     OW 7148   2.401   3.788   0.512
 2378SOL    HW1 7149   2.320   3.789   0.570
 2378SOL    HW2 7150   2.404   3.871   0.457
 2379SOL     OW 7151   2.159   3.759   0.171
 2379SOL    HW1 7152   2.208   3.843   0.150
 2379SOL    HW2 7153   2.221   3.694   0.216
 2380SOL     OW 7154   2.797   3.960   0.480
 2380SOL    HW1 7155   2.749   4.001   0.402
 2380SOL    HW2 7156   2.896   3.958   0.461
 2381SOL     OW 7157   2.938   4.407   1.464
 2381SOL    HW1 7158   2.858   4.346   1.467
 2381SOL    HW2 7159   3.019   4.354   1.440
 2382SOL     OW 7160   2.894   4.273   0.016
 2382SOL    HW1 7161   2.853   4.355  -0.023
 2382SOL    HW2 7162   2.958   4.299   0.089
 2383SOL     OW 7163   1.940   4.280   1.386
 2383SOL    HW1 7164   2.032   4.279   1.345
 2383SOL    HW2 7165   1.934   4.354   1.453
 2384SOL     OW 7166   2.423   3.946   1.147
 2384SOL    HW1 7167   2.461   3.862   1.184
 2384SOL    HW2 7168   2.335   3.965   1.191
 2385SOL     OW 7169   2.728   4.178   0.642
 2385SOL    HW1 7170   2.696   4.250   0.580
 2385SOL    HW2 7171   2.752   4.097   0.589
 2386SOL     OW 7172   2.879   3.763   0.753
 2386SOL    HW1 7173   2.807   3.768   0.684
 2386SOL    HW2 7174   2.855   3.694   0.822
 2387SOL     OW 7175   3.328   4.314   0.992
 2387SOL    HW1 7176   3.298   4.219   0.999
 2387SOL    HW2 7177   3.401   4.330   1.058
 2388SOL     OW 7178   3.719   4.557   0.377
 2388SOL    HW1 7179   3.761   4.493   0.441
 2388SOL    HW2 7180   3.681   4.506   0.299
 2389SOL     OW 7181   3.252   4.299   0.078
 2389SOL    HW1 7182   3.198   4.278   0.159
 2389SOL    HW2 7183   3.343   4.258   0.087
 2390SOL     OW 7184   2.389   3.980   0.328
 2390SOL    HW1 7185   2.416   3.921   0.253
 2390SOL    HW2 7186   2.389   4.075   0.297
 2391SOL     OW 7187   2.777   3.813   1.402
 2391SOL    HW1 7188   2.802   3.793   1.307
 2391SOL    HW2 7189   2.849   3.869   1.444
 2392SOL     OW 7190   2.272   4.537   1.251
 2392SOL    HW1 7191   2.358   4.549   1.301
 2392SOL    HW2 7192   2.230   4.450   1.278
 2393SOL     OW 7193   3.136   4.110   1.262
 2393SOL    HW1 7194   3.157   4.184   1.326
 2393SOL    HW2 7195   3.047   4.127   1.219
 2394SOL     OW 7196   2.428   4.261   0.865
 2394SOL    HW1 7197   2.440   4.327   0.791
 2394SOL    HW2 7198   2.474   4.295   0.948
 2395SOL     OW 7199   3.444   4.363   0.472
 2395SOL    HW1 7200   3.413   4.424   0.545
 2395SOL    HW2 7201   3.494   4.415   0.403
 2396SOL     OW 7202   2.264   4.475   1.598
 2396SOL    HW1 7203   2.332   4.530   1.551
 2396SOL    HW2 7204   2.304   4.387   1.625
 2397SOL     OW 7205   3.449   4.503   1.670
 2397SOL    HW1 7206   3.357   4.541   1.665
 2397SOL    HW2 7207   3.509   4.550   1.605
 2398SOL     OW 7208   2.875   3.829   1.770
 2398SOL    HW1 7209   2.881   3.914   1.718
 2398SOL    HW2 7210   2.907   3.753   1.713
 2399SOL     OW 7211   2.366   3.774   1.740
 2399SOL    HW1 7212   2.324   3.717   1.670
 2399SOL    HW2 7213   2.300   3.843   1.772
 2400SOL     OW 7214   2.435   4.594   1.029
 2400SOL    HW1 7215   2.479   4.683   1.020
 2400SOL    HW2 7216   2.372   4.594   1.106
 2401SOL     OW 7217   3.222   4.586   1.045
 2401SOL    HW1 7218   3.147   4.586   0.979
 2401SOL    HW2 7219   3.259   4.494   1.054
 2402SOL     OW 7220   3.071   4.249   0.275
 2402SOL    HW1 7221   3.084   4.165   0.329
 2402SOL    HW2 7222   3.042   4.323   0.335
 2403SOL     OW 7223   2.169   3.937   1.231
 2403SOL    HW1 7224   2.146   3.974   1.321
 2403SOL    HW2 7225   2.139   3.842   1.225
 2404SOL     OW 7226   2.594   4.358   1.064
 2404SOL    HW1 7227   2.653   4.332   0.988
 2404SOL    HW2 7228   2.566   4.454   1.053
 2405SOL     OW 7229   3.590   4.659   1.854
 2405SOL    HW1 7230   3.544   4.652   1.765
 2405SOL    HW2 7231   3.528   4.703   1.920
 2406SOL     OW 7232   2.169   3.787   0.618
 2406SOL    HW1 7233   2.158   3.881   0.651
 2406SOL    HW2 7234   2.164   3.724   0.695
 2407SOL     OW 7235   3.484   4.091   0.374
 2407SOL    HW1 7236   3.486   4.015   0.438
 2407SOL    HW2 7237   3.436   4.168   0.414
 2408SOL     OW 7238   2.885   4.490   0.966
 2408SOL    HW1 7239   2.900   4.511   1.062
 2408SOL    HW2 7240   2.855   4.395   0.957
 2409SOL     OW 7241   3.402   3.998   0.125
 2409SOL    HW1 7242   3.341   3.923   0.148
 2409SOL    HW2 7243   3.424   4.050   0.208
 2410SOL     OW 7244   2.181   4.534   0.949
 2410SOL    HW1 7245   2.274   4.570   0.954
 2410SOL    HW2 7246   2.175   4.449   1.001
 2411SOL     OW 7247   2.201   4.233   1.006
 2411SOL    HW1 7248   2.149   4.150   0.989
 2411SOL    HW2 7249   2.278   4.238   0.942
 2412SOL     OW 7250   3.000   4.104   1.678
 2412SOL    HW1 7251   2.955   4.167   1.742
 2412SOL    HW2 7252   3.093   4.135   1.661
 2413SOL     OW 7253   3.022   3.931   1.477
 2413SOL    HW1 7254   3.022   3.995   1.554
 2413SOL    HW2 7255   3.050   3.979   1.394
 2414SOL     OW 7256   2.864   4.520   1.238
 2414SOL    HW1 7257   2.905   4.488   1.324
 2414SOL    HW2 7258   2.768   4.493   1.235
 2415SOL     OW 7259   1.902   4.268   1.114
 2415SOL    HW1 7260   1.987   4.235   1.073
 2415SOL    HW2 7261   1.915   4.283   1.212
 2416SOL     OW 7262   2.051   4.244   1.722
 2416SOL    HW1 7263   2.110   4.204   1.652
 2416SOL    HW2 7264   1.993   4.315   1.681
 2417SOL     OW 7265   2.677   4.296   0.325
 2417SOL    HW1 7266   2.684   4.207   0.279
 2417SOL    HW2 7267   2.583   4.330   0.317
 2418SOL     OW 7268   3.519   4.328   1.206
 2418SOL    HW1 7269   3.481   4.259   1.268
 2418SOL    HW2 7270   3.601   4.292   1.162
 2419SOL     OW 7271   2.533   4.188   1.269
 2419SOL    HW1 7272   2.499   4.099   1.239
 2419SOL    HW2 7273   2.559   4.242   1.189
 2420SOL     OW 7274   2.335   4.224   0.191
 2420SOL    HW1 7275   2.396   4.304   0.195
 2420SOL    HW2 7276   2.240   4.255   0.198
 2421SOL     OW 7277   2.765   3.810   0.133
 2421SOL    HW1 7278   2.816   3.811   0.047
 2421SOL    HW2 7279   2.821   3.768   0.204
 2422SOL     OW 7280   3.588   3.859   0.523
 2422SOL    HW1 7281   3.661   3.842   0.456
 2422SOL    HW2 7282   3.557   3.772   0.561
 2423SOL     OW 7283   3.142   4.651   0.672
 2423SOL    HW1 7284   3.202   4.570   0.674
 2423SOL    HW2 7285   3.182   4.720   0.612
 2424SOL     OW 7286   3.703   3.899   0.963
 2424SOL    HW1 7287   3.742   3.814   0.927
 2424SOL    HW2 7288   3.605   3.901   0.944
 2425SOL     OW 7289   2.125   4.050   0.720
 2425SOL    HW1 7290   2.046   4.101   0.686
 2425SOL    HW2 7291   2.116   4.035   0.818
 2426SOL     OW 7292   2.876   3.960   0.971
 2426SOL    HW1 7293   2.868   3.924   0.878
 2426SOL    HW2 7294   2.874   3.884   1.036
 2427SOL     OW 7295   3.571   4.109   1.381
 2427SOL    HW1 7296   3.644   4.178   1.385
 2427SOL    HW2 7297   3.599   4.034   1.322
 2428SOL     OW 7298   1.967   4.737   1.726
 2428SOL    HW1 7299   1.890   4.704   1.780
 2428SOL    HW2 7300   2.052   4.707   1.768
 2429SOL     OW 7301   2.534   3.927   1.489
 2429SOL    HW1 7302   2.624   3.911   1.449
 2429SOL    HW2 7303   2.542   3.932   1.588
 2430SOL     OW 7304   3.302   4.580   1.398
 2430SOL    HW1 7305   3.245   4.632   1.335
 2430SOL    HW2 7306   3.398   4.592   1.374
 2431SOL     OW 7307   1.934   3.890   0.318
 2431SOL    HW1 7308   1.917   3.973   0.264
 2431SOL    HW2 7309   2.024   3.853   0.296
 2432SOL     OW 7310   2.475   4.566   1.431
 2432SOL    HW1 7311   2.531   4.647   1.414
 2432SOL    HW2 7312   2.534   4.486   1.434
 2433SOL     OW 7313   2.578   4.289   1.708
 2433SOL    HW1 7314   2.597   4.354   1.782
 2433SOL    HW2 7315   2.638   4.209   1.717
 2434SOL     OW 7316   3.536   4.607   1.254
 2434SOL    HW1 7317   3.509   4.518   1.217
 2434SOL    HW2 7318   3.537   4.675   1.181
 2435SOL     OW 7319   3.087   4.049   0.449
 2435SOL    HW1 7320   3.152   3.975   0.438
 2435SOL    HW2 7321   3.107   4.099   0.533
 2436SOL     OW 7322   2.456   4.469   0.652
 2436SOL    HW1 7323   2.506   4.554   0.633
 2436SOL    HW2 7324   2.368   4.471   0.604
 2437SOL     OW 7325   3.639   4.066   1.642
 2437SOL    HW1 7326   3.622   4.097   1.548
 2437SOL    HW2 7327   3.555   4.029   1.680
 2438SOL     OW 7328   3.592   4.658   1.517
 2438SOL    HW1 7329   3.630   4.749   1.532
 2438SOL    HW2 7330   3.584   4.641   1.418
 2439SOL     OW 7331   3.686   3.916   1.227
 2439SOL    HW1 7332   3.682   3.826   1.271
 2439SOL    HW2 7333   3.689   3.905   1.128
 2440SOL     OW 7334   2.290   4.148   0.520
 2440SOL    HW1 7335   2.320   4.076   0.458
 2440SOL    HW2 7336   2.251   4.108   0.603
 2441SOL     OW 7337   2.179   4.271   1.280
 2441SOL    HW1 7338   2.217   4.212   1.352
 2441SOL    HW2 7339   2.219   4.245   1.192
 2442SOL     OW 7340   3.286   3.938   1.112
 2442SOL    HW1 7341   3.338   3.873   1.167
 2442SOL    HW2 7342   3.237   4.001   1.173
 2443SOL     OW 7343   2.863   3.758   1.154
 2443SOL    HW1 7344   2.800   3.686   1.123
 2443SOL    HW2 7345   2.956   3.722   1.154
 2444SOL     OW 7346   3.214   3.776   0.168
 2444SOL    HW1 7347   3.249   3.735   0.084
 2444SOL    HW2 7348   3.124   3.738   0.188
 2445SOL     OW 7349   3.162   4.177   0.691
 2445SOL    HW1 7350   3.103   4.257   0.695
 2445SOL    HW2 7351   3.177   4.142   0.784
 2446SOL     OW 7352   3.455   3.945   0.882
 2446SOL    HW1 7353   3.371   3.944   0.936
 2446SOL    HW2 7354   3.457   4.028   0.826
 2447SOL     OW 7355   2.092   4.352   1.975
 2447SOL    HW1 7356   1.999   4.350   2.012
 2447SOL    HW2 7357   2.093   4.313   1.883
 2448SOL     OW 7358   2.087   3.999   2.858
 2448SOL    HW1 7359   2.122   3.982   2.950
 2448SOL    HW2 7360   1.999   3.954   2.846
 2449SOL     OW 7361   1.881   4.092   2.509
 2449SOL    HW1 7362   1.799   4.135   2.548
 2449SOL    HW2 7363   1.853   4.019   2.446
 2450SOL     OW 7364   2.997   4.427   2.579
 2450SOL    HW1 7365   3.054   4.505   2.554
 2450SOL    HW2 7366   2.937   4.453   2.655
 2451SOL     OW 7367   3.617   4.331   2.093
 2451SOL    HW1 7368   3.605   4.318   1.994
 2451SOL    HW2 7369   3.587   4.250   2.142
 2452SOL     OW 7370   2.712   4.522   3.685
 2452SOL    HW1 7371   2.708   4.598   3.750
 2452SOL    HW2 7372   2.734   4.558   3.594
 2453SOL     OW 7373   2.547   4.736   2.527
 2453SOL    HW1 7374   2.616   4.720   2.597
 2453SOL    HW2 7375   2.474   4.793   2.565
 2454SOL     OW 7376   2.300   4.116   3.361
 2454SOL    HW1 7377   2.382   4.060   3.370
 2454SOL    HW2 7378   2.219   4.058   3.365
 2455SOL     OW 7379   3.465   4.171   2.599
 2455SOL    HW1 7380   3.391   4.217   2.549
 2455SOL    HW2 7381   3.516   4.239   2.652
 2456SOL     OW 7382   3.456   3.838   3.342
 2456SOL    HW1 7383   3.438   3.905   3.270
 2456SOL    HW2 7384   3.453   3.884   3.431
 2457SOL     OW 7385   1.984   4.367   2.425
 2457SOL    HW1 7386   1.939   4.279   2.442
 2457SOL    HW2 7387   1.983   4.421   2.509
 2458SOL     OW 7388   1.975   4.461   3.459
 2458SOL    HW1 7389   2.063   4.448   3.504
 2458SOL    HW2 7390   1.962   4.558   3.437
 2459SOL     OW 7391   2.671   3.728   2.364
 2459SOL    HW1 7392   2.711   3.819   2.355
 2459SOL    HW2 7393   2.571   3.736   2.370
 2460SOL     OW 7394   2.179   3.975   3.663
 2460SOL    HW1 7395   2.250   4.046   3.669
 2460SOL    HW2 7396   2.091   4.014   3.691
 2461SOL     OW 7397   2.460   4.453   2.132
 2461SOL    HW1 7398   2.484   4.522   2.064
 2461SOL    HW2 7399   2.382   4.486   2.186
 2462SOL     OW 7400   3.143   4.069   2.806
 2462SOL    HW1 7401   3.057   4.019   2.793
 2462SOL    HW2 7402   3.205   4.015   2.862
 2463SOL     OW 7403   2.669   4.329   3.327
 2463SOL    HW1 7404   2.622   4.326   3.416
 2463SOL    HW2 7405   2.618   4.274   3.261
 2464SOL     OW 7406   3.256   4.193   3.536
 2464SOL    HW1 7407   3.236   4.236   3.624
 2464SOL    HW2 7408   3.334   4.131   3.545
 2465SOL     OW 7409   2.853   4.134   3.104
 2465SOL    HW1 7410   2.776   4.168   3.158
 2465SOL    HW2 7411   2.819   4.083   3.025
 2466SOL     OW 7412   2.903   4.425   2.291
 2466SOL    HW1 7413   2.929   4.421   2.387
 2466SOL    HW2 7414   2.818   4.374   2.277
 2467SOL     OW 7415   1.938   4.535   2.651
 2467SOL    HW1 7416   2.037   4.523   2.660
 2467SOL    HW2 7417   1.914   4.630   2.672
 2468SOL     OW 7418   2.727   4.072   2.057
 2468SOL    HW1 7419   2.786   4.135   2.008
 2468SOL    HW2 7420   2.746   3.978   2.028
 2469SOL     OW 7421   3.581   4.309   3.693
 2469SOL    HW1 7422   3.555   4.398   3.657
 2469SOL    HW2 7423   3.579   4.241   3.620
 2470SOL     OW 7424   2.412   3.920   2.747
 2470SOL    HW1 7425   2.407   3.915   2.847
 2470SOL    HW2 7426   2.414   4.016   2.718
 2471SOL     OW 7427   3.320   4.459   2.590
 2471SOL    HW1 7428   3.315   4.394   2.665
 2471SOL    HW2 7429   3.400   4.518   2.603
 2472SOL     OW 7430   2.064   4.009   3.360
 2472SOL    HW1 7431   1.984   4.069   3.347
 2472SOL    HW2 7432   2.054   3.960   3.446
 2473SOL     OW 7433   3.262   3.831   2.288
 2473SOL    HW1 7434   3.238   3.794   2.198
 2473SOL    HW2 7435   3.361   3.847   2.292
 2474SOL     OW 7436   2.244   4.424   2.342
 2474SOL    HW1 7437   2.289   4.334   2.339
 2474SOL    HW2 7438   2.150   4.413   2.375
 2475SOL     OW 7439   3.409   3.946   3.591
 2475SOL    HW1 7440   3.404   3.983   3.683
 2475SOL    HW2 7441   3.337   3.877   3.579
 2476SOL     OW 7442   2.476   3.846   1.979
 2476SOL    HW1 7443   2.574   3.824   1.986
 2476SOL    HW2 7444   2.445   3.829   1.886
 2477SOL     OW 7445   2.643   3.988   3.611
 2477SOL    HW1 7446   2.710   3.927   3.654
 2477SOL    HW2 7447   2.570   4.007   3.676
 2478SOL     OW 7448   3.213   4.314   3.295
 2478SOL    HW1 7449   3.241   4.271   3.380
 2478SOL    HW2 7450   3.238   4.410   3.296
 2479SOL     OW 7451   2.784   4.227   2.761
 2479SOL    HW1 7452   2.759   4.218   2.665
 2479SOL    HW2 7453   2.832   4.145   2.792
 2480SOL     OW 7454   2.401   3.788   2.374
 2480SOL    HW1 7455   2.320   3.789   2.432
 2480SOL    HW2 7456   2.404   3.871   2.319
 2481SOL     OW 7457   2.159   3.759   2.033
 2481SOL    HW1 7458   2.208   3.843   2.012
 2481SOL    HW2 7459   2.221   3.694   2.078
 2482SOL     OW 7460   2.797   3.960   2.342
 2482SOL    HW1 7461   2.749   4.001   2.264
 2482SOL    HW2 7462   2.896   3.958   2.323
 2483SOL     OW 7463   2.938   4.407   3.326
 2483SOL    HW1 7464   2.858   4.346   3.329
 2483SOL    HW2 7465   3.019   4.354   3.302
 2484SOL     OW 7466   2.894   4.273   1.878
 2484SOL    HW1 7467   2.853   4.355   1.839
 2484SOL    HW2 7468   2.958   4.299   1.951
 2485SOL     OW 7469   1.940   4.280   3.248
 2485SOL    HW1 7470   2.032   4.279   3.207
 2485SOL    HW2 7471   1.934   4.354   3.315
 2486SOL     OW 7472   2.423   3.946   3.009
 2486SOL    HW1 7473   2.461   3.862   3.046
 2486SOL    HW2 7474   2.335   3.965   3.053
 2487SOL     OW 7475   2.728   4.178   2.504
 2487SOL    HW1 7476   2.696   4.250   2.442
 2487SOL    HW2 7477   2.752   4.097   2.451
 2488SOL     OW 7478   2.879   3.763   2.615
 2488SOL    HW1 7479   2.807   3.768   2.546
 2488SOL    HW2 7480   2.855   3.694   2.684
 2489SOL     OW 7481   3.328   4.314   2.854
 2489SOL    HW1 7482   3.298   4.219   2.861
 2489SOL    HW2 7483   3.401   4.330   2.920
 2490SOL     OW 7484   3.719   4.557   2.239
 2490SOL    HW1 7485   3.761   4.493   2.303
 2490SOL    HW2 7486   3.681   4.506   2.161
 2491SOL     OW 7487   3.252   4.299   1.940
 2491SOL    HW1 7488   3.198   4.278   2.021
 2491SOL    HW2 7489   3.343   4.258   1.949
 2492SOL     OW 7490   2.389   3.980   2.190
 2492SOL    HW1 7491   2.416   3.921   2.115
 2492SOL    HW2 7492   2.389   4.075   2.159
 2493SOL     OW 7493   2.777   3.813   3.264
 2493SOL    HW1 7494   2.802   3.793   3.169
 2493SOL    HW2 7495   2.849   3.869   3.306
 2494SOL     OW 7496   2.272   4.537   3.113
 2494SOL    HW1 7497   2.358   4.549   3.163
 2494SOL    HW2 7498   2.230   4.450   3.140
 2495SOL     OW 7499   3.136   4.110   3.124
 2495SOL    HW1 7500   3.157   4.184   3.188
 2495SOL    HW2 7501   3.047   4.127   3.081
 2496SOL     OW 7502   2.428   4.261   2.727
 2496SOL    HW1 7503   2.440   4.327   2.653
 2496SOL    HW2 7504   2.474   4.295   2.810
 2497SOL     OW 7505   3.444   4.363   2.334
 2497SOL    HW1 7506   3.413   4.424   2.407
 2497SOL    HW2 7507   3.494   4.415   2.265
 2498SOL     OW 7508   2.264   4.475   3.460
 2498SOL    HW1 7509   2.332   4.530   3.413
 2498SOL    HW2 7510   2.304   4.387   3.487
 2499SOL     OW 7511   3.449   4.503   3.532
 2499SOL    HW1 7512   3.357   4.541   3.527
 2499SOL    HW2 7513   3.509   4.550   3.467
 2500SOL     OW 7514   2.875   3.829   3.632
 2500SOL    HW1 7515   2.881   3.914   3.580
 2500SOL    HW2 7516   2.907   3.753   3.575
 2501SOL     OW 7517   2.366   3.774   3.602
 2501SOL    HW1 7518   2.324   3.717   3.532
 2501SOL    HW2 7519   2.300   3.843   3.634
 2502SOL     OW 7520   2.435   4.594   2.891
 2502SOL    HW1 7521   2.479   4.683   2.882
 2502SOL    HW2 7522   2.372   4.594   2.968
 2503SOL     OW 7523   3.222   4.586   2.907
 2503SOL    HW1 7524   3.147   4.586   2.841
 2503SOL    HW2 7525   3.259   4.494   2.916
 2504SOL     OW 7526   3.071   4.249   2.137
 2504SOL    HW1 7527   3.084   4.165   2.191
 2504SOL    HW2 7528   3.042   4.323   2.197
 2505SOL     OW 7529   2.169   3.937   3.093
 2505SOL    HW1 7530   2.146   3.974   3.183
 2505SOL    HW2 7531   2.139   3.842   3.087
 2506SOL     OW 7532   2.594   4.358   2.926
 2506SOL    HW1 7533   2.653   4.332   2.850
 2506SOL    HW2 7534   2.566   4.454   2.915
 2507SOL     OW 7535   3.590   4.659   3.716
 2507SOL    HW1 7536   3.544   4.652   3.627
 2507SOL    HW2 7537   3.528   4.703   3.782
 2508SOL     OW 7538   2.169   3.787   2.480
 2508SOL    HW1 7539   2.158   3.881   2.513
 2508SOL    HW2 7540   2.164   3.724   2.557
 2509SOL     OW 7541   3.484   4.091   2.236
 2509SOL    HW1 7542   3.486   4.015   2.300
 2509SOL    HW2 7543   3.436   4.168   2.276
 2510SOL     OW 7544   2.885   4.490   2.828
 2510SOL    HW1 7545   2.900   4.511   2.924
 2510SOL    HW2 7546   2.855   4.395   2.819
 2511SOL     OW 7547   3.402   3.998   1.987
 2511SOL    HW1 7548   3.341   3.923   2.010
 2511SOL    HW2 7549   3.424   4.050   2.070
 2512SOL     OW 7550   2.181   4.534   2.811
 2512SOL    HW1 7551   2.274   4.570   2.816
 2512SOL    HW2 7552   2.175   4.449   2.863
 2513SOL     OW 7553   2.201   4.233   2.868
 2513SOL    HW1 7554   2.149   4.150   2.851
 2513SOL    HW2 7555   2.278   4.238   2.804
 2514SOL     OW 7556   3.000   4.104   3.540
 2514SOL    HW1 7557   2.955   4.167   3.604
 2514SOL    HW2 7558   3.093   4.135   3.523
 2515SOL     OW 7559   3.022   3.931   3.339
 2515SOL    HW1 7560   3.022   3.995   3.416
 2515SOL    HW2 7561   3.050   3.979   3.256
 2516SOL     OW 7562   2.864   4.520   3.100
 2516SOL    HW1 7563   2.905   4.488   3.186
 2516SOL    HW2 7564   2.768   4.493   3.097
 2517SOL     OW 7565   1.902   4.268   2.976
 2517SOL    HW1 7566   1.987   4.235   2.935
 2517SOL    HW2 7567   1.915   4.283   3.074
 2518SOL     OW 7568   2.051   4.244   3.584
 2518SOL    HW1 7569   2.110   4.204   3.514
 2518SOL    HW2 7570   1.993   4.315   3.543
 2519SOL     OW 7571   2.677   4.296   2.187
 2519SOL    HW1 7572   2.684   4.207   2.141
 2519SOL    HW2 7573   2.583   4.330   2.179
 2520SOL     OW 7574   3.519   4.328   3.068
 2520SOL    HW1 7575   3.481   4.259   3.130
 2520SOL    HW2 7576   3.601   4.292   3.024
 2521SOL     OW 7577   2.533   4.188   3.131
 2521SOL    HW1 7578   2.499   4.099   3.101
 2521SOL    HW2 7579   2.559   4.242   3.051
 2522SOL     OW 7580   2.335   4.224   2.053
 2522SOL    HW1 7581   2.396   4.304   2.057
 2522SOL    HW2 7582   2.240   4.255   2.060
 2523SOL     OW 7583   3.588   3.859   2.385
 2523SOL    HW1 7584   3.661   3.842   2.318
 2523SOL    HW2 7585   3.557   3.772   2.423
 2524SOL     OW 7586   3.142   4.651   2.534
 2524SOL    HW1 7587   3.202   4.570   2.536
 2524SOL    HW2 7588   3.182   4.720   2.474
 2525SOL     OW 7589   3.703   3.899   2.825
 2525SOL    HW1 7590   3.742   3.814   2.789
 2525SOL    HW2 7591   3.605   3.901   2.806
 2526SOL     OW 7592   2.125   4.050   2.582
 2526SOL    HW1 7593   2.046   4.101   2.548
 2526SOL    HW2 7594   2.116   4.035   2.680
 2527SOL     OW 7595   2.778   4.634   2.153
 2527SOL    HW1 7596   2.841   4.672   2.085
 2527SOL    HW2 7597   2.818   4.551   2.192
 2528SOL     OW 7598   2.876   3.960   2.833
 2528SOL    HW1 7599   2.868   3.924   2.740
 2528SOL    HW2 7600   2.874   3.884   2.898
 2529SOL     OW 7601   3.571   4.109   3.243
 2529SOL    HW1 7602   3.644   4.178   3.247
 2529SOL    HW2 7603   3.599   4.034   3.184
 2530SOL     OW 7604   1.967   4.737   3.588
 2530SOL    HW1 7605   1.890   4.704   3.642
 2530SOL    HW2 7606   2.052   4.707   3.630
 2531SOL     OW 7607   2.534   3.927   3.351
 2531SOL    HW1 7608   2.624   3.911   3.311
 2531SOL    HW2 7609   2.542   3.932   3.450
 2532SOL     OW 7610   1.937   4.069   1.895
 2532SOL    HW1 7611   1.845   4.041   1.866
 2532SOL    HW2 7612   1.968   4.146   1.839
 2533SOL     OW 7613   3.302   4.580   3.260
 2533SOL    HW1 7614   3.245   4.632   3.197
 2533SOL    HW2 7615   3.398   4.592   3.236
 2534SOL     OW 7616   1.934   3.890   2.180
 2534SOL    HW1 7617   1.917   3.973   2.126
 2534SOL    HW2 7618   2.024   3.853   2.158
 2535SOL     OW 7619   2.475   4.566   3.293
 2535SOL    HW1 7620   2.531   4.647   3.276
 2535SOL    HW2 7621   2.534   4.486   3.296
 2536SOL     OW 7622   2.578   4.289   3.570
 2536SOL    HW1 7623   2.597   4.354   3.644
 2536SOL    HW2 7624   2.638   4.209   3.579
 2537SOL     OW 7625   3.536   4.607   3.116
 2537SOL    HW1 7626   3.509   4.518   3.079
 2537SOL    HW2 7627   3.537   4.675   3.043
 2538SOL     OW 7628   3.087   4.049   2.311
 2538SOL    HW1 7629   3.152   3.975   2.300
 2538SOL    HW2 7630   3.107   4.099   2.395
 2539SOL     OW 7631   2.456   4.469   2.514
 2539SOL    HW1 7632   2.506   4.554   2.495
 2539SOL    HW2 7633   2.368   4.471   2.466
 2540SOL     OW 7634   3.639   4.066   3.504
 2540SOL    HW1 7635   3.622   4.097   3.410
 2540SOL    HW2 7636   3.555   4.029   3.542
 2541SOL     OW 7637   3.592   4.658   3.379
 2541SOL    HW1 7638   3.630   4.749   3.394
 2541SOL    HW2 7639   3.584   4.641   3.280
 2542SOL     OW 7640   3.686   3.916   3.089
 2542SOL    HW1 7641   3.682   3.826   3.133
 2542SOL    HW2 7642   3.689   3.905   2.990
 2543SOL     OW 7643   2.290   4.148   2.382
 2543SOL    HW1 7644   2.320   4.076   2.320
 2543SOL    HW2 7645   2.251   4.108   2.465
 2544SOL     OW 7646   2.179   4.271   3.142
 2544SOL    HW1 7647   2.217   4.212   3.214
 2544SOL    HW2 7648   2.219   4.245   3.054
 2545SOL     OW 7649   3.286   3.938   2.974
 2545SOL    HW1 7650   3.338   3.873   3.029
 2545SOL    HW2 7651   3.237   4.001   3.035
 2546SOL     OW 7652   2.863   3.758   3.016
 2546SOL    HW1 7653   2.800   3.686   2.985
 2546SOL    HW2 7654   2.956   3.722   3.016
 2547SOL     OW 7655   3.214   3.776   2.030
 2547SOL    HW1 7656   3.249   3.735   1.946
 2547SOL    HW2 7657   3.124   3.738   2.050
 2548SOL     OW 7658   3.162   4.177   2.553
 2548SOL    HW1 7659   3.103   4.257   2.557
 2548SOL    HW2 7660   3.177   4.142   2.646
 2549SOL     OW 7661   3.455   3.945   2.744
 2549SOL    HW1 7662   3.371   3.944   2.798
 2549SOL    HW2 7663   3.457   4.028   2.688
 2550SOL     OW 7664   2.092   4.352   3.837
 2550SOL    HW1 7665   1.999   4.350   3.874
 2550SOL    HW2 7666   2.093   4.313   3.745
 2551SOL     OW 7667   2.087   3.999   4.720
 2551SOL    HW1 7668   2.122   3.982   4.812
 2551SOL    HW2 7669   1.999   3.954   4.708
 2552SOL     OW 7670   1.881   4.092   4.371
 2552SOL    HW1 7671   1.799   4.135   4.410
 2552SOL    HW2 7672   1.853   4.019   4.308
 2553SOL     OW 7673   2.997   4.427   4.441
 2553SOL    HW1 7674   3.054   4.505   4.416
 2553SOL    HW2 7675   2.937   4.453   4.517
 2554SOL     OW 7676   3.617   4.331   3.955
 2554SOL    HW1 7677   3.605   4.318   3.856
 2554SOL    HW2 7678   3.587   4.250   4.004
 2555SOL     OW 7679   2.547   4.736   4.389
 2555SOL    HW1 7680   2.616   4.720   4.459
 2555SOL    HW2 7681   2.474   4.793   4.427
 2556SOL     OW 7682   3.465   4.171   4.461
 2556SOL    HW1 7683   3.391   4.217   4.411
 2556SOL    HW2 7684   3.516   4.239   4.514
 2557SOL     OW 7685   1.984   4.367   4.287
 2557SOL    HW1 7686   1.939   4.279   4.304
 2557SOL    HW2 7687   1.983   4.421   4.371
 2558SOL     OW 7688   2.671   3.728   4.226
 2558SOL    HW1 7689   2.711   3.819   4.217
 2558SOL    HW2 7690   2.571   3.736   4.232
 2559SOL     OW 7691   2.460   4.453   3.994
 2559SOL    HW1 7692   2.484   4.522   3.926
 2559SOL    HW2 7693   2.382   4.486   4.048
 2560SOL     OW 7694   3.143   4.069   4.668
 2560SOL    HW1 7695   3.057   4.019   4.655
 2560SOL    HW2 7696   3.205   4.015   4.724
 2561SOL     OW 7697   2.903   4.425   4.153
 2561SOL    HW1 7698   2.929   4.421   4.249
 2561SOL    HW2 7699   2.818   4.374   4.139
 2562SOL     OW 7700   1.938   4.535   4.513
 2562SOL    HW1 7701   2.037   4.523   4.522
 2562SOL    HW2 7702   1.914   4.630   4.534
 2563SOL     OW 7703   2.727   4.072   3.919
 2563SOL    HW1 7704   2.786   4.135   3.870
 2563SOL    HW2 7705   2.746   3.978   3.890
 2564SOL     OW 7706   2.412   3.920   4.609
 2564SOL    HW1 7707   2.407   3.915   4.709
 2564SOL    HW2 7708   2.414   4.016   4.580
 2565SOL     OW 7709   3.320   4.459   4.452
 2565SOL    HW1 7710   3.315   4.394   4.527
 2565SOL    HW2 7711   3.400   4.518   4.465
 2566SOL     OW 7712   3.262   3.831   4.150
 2566SOL    HW1 7713   3.238   3.794   4.060
 2566SOL    HW2 7714   3.361   3.847   4.154
 2567SOL     OW 7715   2.244   4.424   4.204
 2567SOL    HW1 7716   2.289   4.334   4.201
 2567SOL    HW2 7717   2.150   4.413   4.237
 2568SOL     OW 7718   2.476   3.846   3.841
 2568SOL    HW1 7719   2.574   3.824   3.848
 2568SOL    HW2 7720   2.445   3.829   3.748
 2569SOL     OW 7721   2.401   3.788   4.236
 2569SOL    HW1 7722   2.320   3.789   4.294
 2569SOL    HW2 7723   2.404   3.871   4.181
 2570SOL     OW 7724   2.159   3.759   3.895
 2570SOL    HW1 7725   2.208   3.843   3.874
 2570SOL    HW2 7726   2.221   3.694   3.940
 2571SOL     OW 7727   2.797   3.960   4.204
 2571SOL    HW1 7728   2.749   4.001   4.126
 2571SOL    HW2 7729   2.896   3.958   4.185
 2572SOL     OW 7730   2.321   4.876   4.465
 2572SOL    HW1 7731   2.250   4.849   4.530
 2572SOL    HW2 7732   2.295   4.848   4.372
 2573SOL     OW 7733   2.894   4.273   3.740
 2573SOL    HW1 7734   2.853   4.355   3.701
 2573SOL    HW2 7735   2.958   4.299   3.813
 2574SOL     OW 7736   2.728   4.178   4.366
 2574SOL    HW1 7737   2.696   4.250   4.304
 2574SOL    HW2 7738   2.752   4.097   4.313
 2575SOL     OW 7739   2.879   3.763   4.477
 2575SOL    HW1 7740   2.807   3.768   4.408
 2575SOL    HW2 7741   2.855   3.694   4.546
 2576SOL     OW 7742   3.291   4.897   4.591
 2576SOL    HW1 7743   3.236   4.813   4.584
 2576SOL    HW2 7744   3.317   4.926   4.499
 2577SOL     OW 7745   3.719   4.557   4.101
 2577SOL    HW1 7746   3.761   4.493   4.165
 2577SOL    HW2 7747   3.681   4.506   4.023
 2578SOL     OW 7748   3.252   4.299   3.802
 2578SOL    HW1 7749   3.198   4.278   3.883
 2578SOL    HW2 7750   3.343   4.258   3.811
 2579SOL     OW 7751   2.389   3.980   4.052
 2579SOL    HW1 7752   2.416   3.921   3.977
 2579SOL    HW2 7753   2.389   4.075   4.021
 2580SOL     OW 7754   2.428   4.261   4.589
 2580SOL    HW1 7755   2.440   4.327   4.515
 2580SOL    HW2 7756   2.474   4.295   4.672
 2581SOL     OW 7757   3.444   4.363   4.196
 2581SOL    HW1 7758   3.413   4.424   4.269
 2581SOL    HW2 7759   3.494   4.415   4.127
 2582SOL     OW 7760   3.071   4.249   3.999
 2582SOL    HW1 7761   3.084   4.165   4.053
 2582SOL    HW2 7762   3.042   4.323   4.059
 2583SOL     OW 7763   2.169   3.787   4.342
 2583SOL    HW1 7764   2.158   3.881   4.375
 2583SOL    HW2 7765   2.164   3.724   4.419
 2584SOL     OW 7766   3.484   4.091   4.098
 2584SOL    HW1 7767   3.486   4.015   4.162
 2584SOL    HW2 7768   3.436   4.168   4.138
 2585SOL     OW 7769   3.402   3.998   3.849
 2585SOL    HW1 7770   3.341   3.923   3.872
 2585SOL    HW2 7771   3.424   4.050   3.932
 2586SOL     OW 7772   2.677   4.296   4.049
 2586SOL    HW1 7773   2.684   4.207   4.003
 2586SOL    HW2 7774   2.583   4.330   4.041
 2587SOL     OW 7775   2.335   4.224   3.915
 2587SOL    HW1 7776   2.396   4.304   3.919
 2587SOL    HW2 7777   2.240   4.255   3.922
 2588SOL     OW 7778   3.588   3.859   4.247
 2588SOL    HW1 7779   3.661   3.842   4.180
 2588SOL    HW2 7780   3.557   3.772   4.285
 2589SOL     OW 7781   3.142   4.651   4.396
 2589SOL    HW1 7782   3.202   4.570   4.398
 2589SOL    HW2 7783   3.182   4.720   4.336
 2590SOL     OW 7784   3.703   3.899   4.687
 2590SOL    HW1 7785   3.742   3.814   4.651
 2590SOL    HW2 7786   3.605   3.901   4.668
 2591SOL     OW 7787   2.125   4.050   4.444
 2591SOL    HW1 7788   2.046   4.101   4.410
 2591SOL    HW2 7789   2.116   4.035   4.542
 2592SOL     OW 7790   2.778   4.634   4.015
 2592SOL    HW1 7791   2.841   4.672   3.947
 2592SOL    HW2 7792   2.818   4.551   4.054
 2593SOL     OW 7793   1.937   4.069   3.757
 2593SOL    HW1 7794   1.845   4.041   3.728
 2593SOL    HW2 7795   1.968   4.146   3.701
 2594SOL     OW 7796   1.934   3.890   4.042
 2594SOL    HW1 7797   1.917   3.973   3.988
 2594SOL    HW2 7798   2.024   3.853   4.020
 2595SOL     OW 7799   3.536   4.607   4.978
 2595SOL    HW1 7800   3.509   4.518   4.941
 2595SOL    HW2 7801   3.537   4.675   4.905
 2596SOL     OW 7802   3.087   4.049   4.173
 2596SOL    HW1 7803   3.152   3.975   4.162
 2596SOL    HW2 7804   3.107   4.099   4.257
 2597SOL     OW 7805   2.456   4.469   4.376
 2597SOL    HW1 7806   2.506   4.554   4.357
 2597SOL    HW2 7807   2.368   4.471   4.328
 2598SOL     OW 7808   2.290   4.148   4.244
 2598SOL    HW1 7809   2.320   4.076   4.182
 2598SOL    HW2 7810   2.251   4.108   4.327
 2599SOL     OW 7811   3.214   3.776   3.892
 2599SOL    HW1 7812   3.249   3.735   3.808
 2599SOL    HW2 7813   3.124   3.738   3.912
 2600SOL     OW 7814   3.162   4.177   4.415
 2600SOL    HW1 7815   3.103   4.257   4.419
 2600SOL    HW2 7816   3.177   4.142   4.508
 2601SOL     OW 7817   3.954   0.628   0.113
 2601SOL    HW1 7818   3.861   0.626   0.150
 2601SOL    HW2 7819   3.955   0.589   0.021
 2602SOL     OW 7820   3.949   0.275   0.996
 2602SOL    HW1 7821   3.984   0.258   1.088
 2602SOL    HW2 7822   3.861   0.230   0.984
 2603SOL     OW 7823   3.743   0.368   0.647
 2603SOL    HW1 7824   3.661   0.411   0.686
 2603SOL    HW2 7825   3.715   0.295   0.584
 2604SOL     OW 7826   4.293   1.275   1.165
 2604SOL    HW1 7827   4.200   1.268   1.128
 2604SOL    HW2 7828   4.304   1.364   1.209
 2605SOL     OW 7829   4.574   0.798   1.823
 2605SOL    HW1 7830   4.570   0.874   1.888
 2605SOL    HW2 7831   4.596   0.834   1.732
 2606SOL     OW 7832   4.409   1.012   0.665
 2606SOL    HW1 7833   4.478   0.996   0.735
 2606SOL    HW2 7834   4.336   1.069   0.703
 2607SOL     OW 7835   4.410   1.161   1.803
 2607SOL    HW1 7836   4.470   1.240   1.817
 2607SOL    HW2 7837   4.324   1.192   1.762
 2608SOL     OW 7838   4.059   1.435   1.061
 2608SOL    HW1 7839   3.981   1.404   1.008
 2608SOL    HW2 7840   4.117   1.493   1.004
 2609SOL     OW 7841   4.162   0.392   1.499
 2609SOL    HW1 7842   4.244   0.336   1.508
 2609SOL    HW2 7843   4.081   0.334   1.503
 2610SOL     OW 7844   3.955   1.713   0.483
 2610SOL    HW1 7845   3.989   1.790   0.537
 2610SOL    HW2 7846   3.999   1.713   0.393
 2611SOL     OW 7847   3.954   1.434   0.538
 2611SOL    HW1 7848   3.928   1.530   0.538
 2611SOL    HW2 7849   3.883   1.380   0.583
 2612SOL     OW 7850   3.964   1.091   0.886
 2612SOL    HW1 7851   3.978   1.007   0.938
 2612SOL    HW2 7852   3.909   1.155   0.941
 2613SOL     OW 7853   4.344   1.786   1.439
 2613SOL    HW1 7854   4.252   1.769   1.474
 2613SOL    HW2 7855   4.372   1.878   1.465
 2614SOL     OW 7856   4.330   0.964   0.123
 2614SOL    HW1 7857   4.337   1.048   0.069
 2614SOL    HW2 7858   4.376   0.977   0.211
 2615SOL     OW 7859   3.846   0.643   0.563
 2615SOL    HW1 7860   3.801   0.555   0.580
 2615SOL    HW2 7861   3.845   0.697   0.647
 2616SOL     OW 7862   3.751   1.596   0.117
 2616SOL    HW1 7863   3.732   1.500   0.138
 2616SOL    HW2 7864   3.718   1.654   0.192
 2617SOL     OW 7865   3.837   0.737   1.597
 2617SOL    HW1 7866   3.925   0.724   1.642
 2617SOL    HW2 7867   3.824   0.834   1.575
 2618SOL     OW 7868   4.337   1.365   0.726
 2618SOL    HW1 7869   4.288   1.278   0.735
 2618SOL    HW2 7870   4.314   1.408   0.639
 2619SOL     OW 7871   4.533   0.004   0.502
 2619SOL    HW1 7872   4.573   0.095   0.493
 2619SOL    HW2 7873   4.433   0.012   0.508
 2620SOL     OW 7874   3.921   0.976   1.264
 2620SOL    HW1 7875   4.010   0.931   1.250
 2620SOL    HW2 7876   3.848   0.911   1.245
 2621SOL     OW 7877   4.041   0.251   1.801
 2621SOL    HW1 7878   4.112   0.322   1.807
 2621SOL    HW2 7879   3.953   0.290   1.829
 2622SOL     OW 7880   4.322   0.729   0.270
 2622SOL    HW1 7881   4.346   0.798   0.202
 2622SOL    HW2 7882   4.244   0.762   0.324
 2623SOL     OW 7883   4.531   0.605   1.465
 2623SOL    HW1 7884   4.484   0.602   1.554
 2623SOL    HW2 7885   4.480   0.550   1.399
 2624SOL     OW 7886   3.800   0.811   0.789
 2624SOL    HW1 7887   3.899   0.799   0.798
 2624SOL    HW2 7888   3.776   0.906   0.810
 2625SOL     OW 7889   3.854   1.821   1.571
 2625SOL    HW1 7890   3.844   1.806   1.670
 2625SOL    HW2 7891   3.768   1.857   1.535
 2626SOL     OW 7892   4.589   0.348   0.195
 2626SOL    HW1 7893   4.648   0.411   0.146
 2626SOL    HW2 7894   4.608   0.254   0.166
 2627SOL     OW 7895   4.274   0.196   0.885
 2627SOL    HW1 7896   4.269   0.191   0.985
 2627SOL    HW2 7897   4.276   0.292   0.856
 2628SOL     OW 7898   4.075   1.801   0.853
 2628SOL    HW1 7899   4.125   1.715   0.859
 2628SOL    HW2 7900   4.140   1.878   0.850
 2629SOL     OW 7901   4.045   0.943   0.242
 2629SOL    HW1 7902   4.127   0.982   0.200
 2629SOL    HW2 7903   4.018   0.861   0.193
 2630SOL     OW 7904   4.185   1.266   1.727
 2630SOL    HW1 7905   4.135   1.267   1.641
 2630SOL    HW2 7906   4.122   1.248   1.803
 2631SOL     OW 7907   4.835   1.776   0.237
 2631SOL    HW1 7908   4.775   1.714   0.287
 2631SOL    HW2 7909   4.866   1.732   0.152
 2632SOL     OW 7910   3.926   0.285   1.498
 2632SOL    HW1 7911   3.846   0.345   1.485
 2632SOL    HW2 7912   3.916   0.236   1.584
 2633SOL     OW 7913   4.188   1.743   0.323
 2633SOL    HW1 7914   4.221   1.782   0.409
 2633SOL    HW2 7915   4.264   1.736   0.258
 2634SOL     OW 7916   3.973   1.785   1.241
 2634SOL    HW1 7917   4.030   1.720   1.291
 2634SOL    HW2 7918   3.957   1.752   1.148
 2635SOL     OW 7919   4.106   0.700   0.480
 2635SOL    HW1 7920   4.151   0.610   0.477
 2635SOL    HW2 7921   4.012   0.689   0.513
 2636SOL     OW 7922   4.338   0.122   0.117
 2636SOL    HW1 7923   4.436   0.100   0.124
 2636SOL    HW2 7924   4.307   0.105   0.024
 2637SOL     OW 7925   4.505   0.264   1.749
 2637SOL    HW1 7926   4.572   0.203   1.792
 2637SOL    HW2 7927   4.432   0.283   1.814
 2638SOL     OW 7928   4.527   1.402   0.924
 2638SOL    HW1 7929   4.617   1.416   0.882
 2638SOL    HW2 7930   4.456   1.404   0.853
 2639SOL     OW 7931   4.646   0.503   0.899
 2639SOL    HW1 7932   4.621   0.494   0.803
 2639SOL    HW2 7933   4.694   0.421   0.930
 2640SOL     OW 7934   4.263   0.064   0.512
 2640SOL    HW1 7935   4.182   0.065   0.570
 2640SOL    HW2 7936   4.266   0.147   0.457
 2641SOL     OW 7937   4.021   0.035   0.171
 2641SOL    HW1 7938   4.070   0.119   0.150
 2641SOL    HW2 7939   4.083  -0.030   0.216
 2642SOL     OW 7940   4.183   1.152   0.741
 2642SOL    HW1 7941   4.112   1.125   0.806
 2642SOL    HW2 7942   4.157   1.124   0.648
 2643SOL     OW 7943   3.802   0.556   1.386
 2643SOL    HW1 7944   3.894   0.555   1.345
 2643SOL    HW2 7945   3.796   0.630   1.453
 2644SOL     OW 7946   4.285   0.222   1.147
 2644SOL    HW1 7947   4.323   0.138   1.184
 2644SOL    HW2 7948   4.197   0.241   1.191
 2645SOL     OW 7949   4.212   1.385   0.174
 2645SOL    HW1 7950   4.125   1.370   0.221
 2645SOL    HW2 7951   4.195   1.411   0.079
 2646SOL     OW 7952   4.251   0.256   0.328
 2646SOL    HW1 7953   4.278   0.197   0.253
 2646SOL    HW2 7954   4.251   0.351   0.297
 2647SOL     OW 7955   4.639   0.089   1.402
 2647SOL    HW1 7956   4.664   0.069   1.307
 2647SOL    HW2 7957   4.711   0.145   1.444
 2648SOL     OW 7958   4.429   1.050   0.368
 2648SOL    HW1 7959   4.415   1.057   0.467
 2648SOL    HW2 7960   4.513   0.999   0.350
 2649SOL     OW 7961   4.134   0.813   1.251
 2649SOL    HW1 7962   4.220   0.825   1.301
 2649SOL    HW2 7963   4.092   0.726   1.278
 2650SOL     OW 7964   3.788   1.564   1.331
 2650SOL    HW1 7965   3.742   1.646   1.297
 2650SOL    HW2 7966   3.886   1.583   1.340
 2651SOL     OW 7967   4.091   1.100   0.501
 2651SOL    HW1 7968   4.084   1.183   0.445
 2651SOL    HW2 7969   4.095   1.020   0.441
 2652SOL     OW 7970   4.290   0.537   0.865
 2652SOL    HW1 7971   4.302   0.603   0.791
 2652SOL    HW2 7972   4.336   0.571   0.948
 2653SOL     OW 7973   4.078   1.510   1.329
 2653SOL    HW1 7974   4.057   1.466   1.242
 2653SOL    HW2 7975   4.175   1.536   1.332
 2654SOL     OW 7976   4.126   0.751   1.598
 2654SOL    HW1 7977   4.194   0.806   1.551
 2654SOL    HW2 7978   4.166   0.663   1.625
 2655SOL     OW 7979   4.228   0.050   1.740
 2655SOL    HW1 7980   4.186  -0.007   1.670
 2655SOL    HW2 7981   4.162   0.119   1.772
 2656SOL     OW 7982   4.297   0.870   1.029
 2656SOL    HW1 7983   4.341   0.959   1.020
 2656SOL    HW2 7984   4.234   0.870   1.106
 2657SOL     OW 7985   4.031   0.213   1.231
 2657SOL    HW1 7986   4.008   0.250   1.321
 2657SOL    HW2 7987   4.001   0.118   1.225
 2658SOL     OW 7988   3.761   1.310   1.282
 2658SOL    HW1 7989   3.814   1.261   1.350
 2658SOL    HW2 7990   3.783   1.408   1.287
 2659SOL     OW 7991   4.456   0.634   1.064
 2659SOL    HW1 7992   4.515   0.608   0.988
 2659SOL    HW2 7993   4.428   0.730   1.053
 2660SOL     OW 7994   4.031   0.063   0.618
 2660SOL    HW1 7995   4.020   0.157   0.651
 2660SOL    HW2 7996   4.026   0.000   0.695
 2661SOL     OW 7997   4.747   0.766   0.966
 2661SOL    HW1 7998   4.762   0.787   1.062
 2661SOL    HW2 7999   4.717   0.671   0.957
 2662SOL     OW 8000   4.704   1.573   1.700
 2662SOL    HW1 8001   4.684   1.617   1.612
 2662SOL    HW2 8002   4.743   1.482   1.684
 2663SOL     OW 8003   4.074   0.898   1.804
 2663SOL    HW1 8004   4.150   0.942   1.852
 2663SOL    HW2 8005   4.109   0.851   1.722
 2664SOL     OW 8006   4.043   0.810   0.949
 2664SOL    HW1 8007   4.136   0.846   0.954
 2664SOL    HW2 8008   4.037   0.725   1.001
 2665SOL     OW 8009   4.063   0.509   1.006
 2665SOL    HW1 8010   4.011   0.426   0.989
 2665SOL    HW2 8011   4.140   0.514   0.942
 2666SOL     OW 8012   3.732   1.326   0.200
 2666SOL    HW1 8013   3.639   1.347   0.169
 2666SOL    HW2 8014   3.742   1.227   0.213
 2667SOL     OW 8015   3.812   1.801   0.927
 2667SOL    HW1 8016   3.770   1.715   0.900
 2667SOL    HW2 8017   3.906   1.804   0.893
 2668SOL     OW 8018   4.228   1.568   0.910
 2668SOL    HW1 8019   4.294   1.642   0.919
 2668SOL    HW2 8020   4.272   1.489   0.868
 2669SOL     OW 8021   3.764   0.544   1.114
 2669SOL    HW1 8022   3.849   0.511   1.073
 2669SOL    HW2 8023   3.777   0.559   1.212
 2670SOL     OW 8024   3.913   0.520   1.722
 2670SOL    HW1 8025   3.972   0.480   1.652
 2670SOL    HW2 8026   3.855   0.591   1.681
 2671SOL     OW 8027   4.539   0.572   0.325
 2671SOL    HW1 8028   4.546   0.483   0.279
 2671SOL    HW2 8029   4.445   0.606   0.317
 2672SOL     OW 8030   3.976   1.564   1.744
 2672SOL    HW1 8031   3.946   1.621   1.820
 2672SOL    HW2 8032   3.969   1.467   1.770
 2673SOL     OW 8033   4.395   0.464   1.269
 2673SOL    HW1 8034   4.361   0.375   1.239
 2673SOL    HW2 8035   4.421   0.518   1.189
 2674SOL     OW 8036   4.197   0.500   0.191
 2674SOL    HW1 8037   4.258   0.580   0.195
 2674SOL    HW2 8038   4.102   0.531   0.198
 2675SOL     OW 8039   3.883   1.137   1.466
 2675SOL    HW1 8040   3.905   1.076   1.542
 2675SOL    HW2 8041   3.893   1.088   1.380
 2676SOL     OW 8042   3.807   1.258   1.022
 2676SOL    HW1 8043   3.802   1.257   1.122
 2676SOL    HW2 8044   3.724   1.217   0.984
 2677SOL     OW 8045   4.412   1.662   1.716
 2677SOL    HW1 8046   4.356   1.743   1.725
 2677SOL    HW2 8047   4.464   1.666   1.630
 2678SOL     OW 8048   4.627   0.086   0.133
 2678SOL    HW1 8049   4.678   0.087   0.047
 2678SOL    HW2 8050   4.683   0.044   0.204
 2679SOL     OW 8051   3.854   1.794   1.851
 2679SOL    HW1 8052   3.813   1.720   1.904
 2679SOL    HW2 8053   3.918   1.845   1.909
 2680SOL     OW 8054   4.554   1.273   1.422
 2680SOL    HW1 8055   4.549   1.306   1.517
 2680SOL    HW2 8056   4.468   1.292   1.376
 2681SOL     OW 8057   4.396   1.616   0.154
 2681SOL    HW1 8058   4.405   1.626   0.055
 2681SOL    HW2 8059   4.356   1.527   0.175
 2682SOL     OW 8060   3.987   0.326   0.720
 2682SOL    HW1 8061   3.908   0.377   0.686
 2682SOL    HW2 8062   3.978   0.311   0.818
 2683SOL     OW 8063   4.918   1.612   0.031
 2683SOL    HW1 8064   4.924   1.519   0.068
 2683SOL    HW2 8065   4.859   1.612  -0.049
 2684SOL     OW 8066   4.546   1.002   1.372
 2684SOL    HW1 8067   4.586   1.001   1.280
 2684SOL    HW2 8068   4.556   1.094   1.412
 2685SOL     OW 8069   4.096   1.288   1.490
 2685SOL    HW1 8070   4.083   1.381   1.456
 2685SOL    HW2 8071   4.012   1.236   1.477
 2686SOL     OW 8072   4.314   1.487   0.491
 2686SOL    HW1 8073   4.356   1.429   0.421
 2686SOL    HW2 8074   4.270   1.566   0.447
 2687SOL     OW 8075   3.979   1.348   0.290
 2687SOL    HW1 8076   3.883   1.349   0.263
 2687SOL    HW2 8077   3.991   1.401   0.374
 2688SOL     OW 8078   3.829   1.013   1.726
 2688SOL    HW1 8079   3.752   0.980   1.780
 2688SOL    HW2 8080   3.914   0.983   1.768
 2689SOL     OW 8081   4.396   0.203   1.489
 2689SOL    HW1 8082   4.486   0.187   1.449
 2689SOL    HW2 8083   4.404   0.208   1.588
 2690SOL     OW 8084   3.796   0.166   0.318
 2690SOL    HW1 8085   3.779   0.249   0.264
 2690SOL    HW2 8086   3.886   0.129   0.296
 2691SOL     OW 8087   4.337   0.842   1.431
 2691SOL    HW1 8088   4.393   0.923   1.414
 2691SOL    HW2 8089   4.396   0.762   1.434
 2692SOL     OW 8090   4.440   0.565   1.708
 2692SOL    HW1 8091   4.459   0.630   1.782
 2692SOL    HW2 8092   4.500   0.485   1.717
 2693SOL     OW 8093   4.114   1.741   1.560
 2693SOL    HW1 8094   4.023   1.782   1.558
 2693SOL    HW2 8095   4.107   1.647   1.592
 2694SOL     OW 8096   4.318   0.745   0.652
 2694SOL    HW1 8097   4.368   0.830   0.633
 2694SOL    HW2 8098   4.230   0.747   0.604
 2695SOL     OW 8099   4.385   1.790   0.953
 2695SOL    HW1 8100   4.339   1.878   0.940
 2695SOL    HW2 8101   4.484   1.802   0.946
 2696SOL     OW 8102   3.945   1.314   1.844
 2696SOL    HW1 8103   3.880   1.241   1.823
 2696SOL    HW2 8104   3.949   1.328   1.942
 2697SOL     OW 8105   3.803   1.240   0.653
 2697SOL    HW1 8106   3.802   1.193   0.741
 2697SOL    HW2 8107   3.885   1.212   0.602
 2698SOL     OW 8108   4.396   1.391   1.624
 2698SOL    HW1 8109   4.318   1.341   1.662
 2698SOL    HW2 8110   4.393   1.486   1.655
 2699SOL     OW 8111   4.152   0.424   0.520
 2699SOL    HW1 8112   4.182   0.352   0.458
 2699SOL    HW2 8113   4.113   0.384   0.603
 2700SOL     OW 8114   4.041   0.547   1.280
 2700SOL    HW1 8115   4.079   0.488   1.352
 2700SOL    HW2 8116   4.081   0.521   1.192
 2701SOL     OW 8117   4.536   1.586   0.687
 2701SOL    HW1 8118   4.568   1.596   0.593
 2701SOL    HW2 8119   4.457   1.524   0.689
 2702SOL     OW 8120   4.725   0.034   1.154
 2702SOL    HW1 8121   4.662  -0.038   1.123
 2702SOL    HW2 8122   4.818  -0.002   1.154
 2703SOL     OW 8123   4.342   1.567   1.284
 2703SOL    HW1 8124   4.337   1.649   1.341
 2703SOL    HW2 8125   4.431   1.564   1.239
 2704SOL     OW 8126   3.763   1.077   0.300
 2704SOL    HW1 8127   3.862   1.066   0.291
 2704SOL    HW2 8128   3.723   0.991   0.332
 2705SOL     OW 8129   3.954   0.628   1.975
 2705SOL    HW1 8130   3.861   0.626   2.012
 2705SOL    HW2 8131   3.955   0.589   1.883
 2706SOL     OW 8132   3.949   0.275   2.858
 2706SOL    HW1 8133   3.984   0.258   2.950
 2706SOL    HW2 8134   3.861   0.230   2.846
 2707SOL     OW 8135   3.743   0.368   2.509
 2707SOL    HW1 8136   3.661   0.411   2.548
 2707SOL    HW2 8137   3.715   0.295   2.446
 2708SOL     OW 8138   4.293   1.275   3.027
 2708SOL    HW1 8139   4.200   1.268   2.990
 2708SOL    HW2 8140   4.304   1.364   3.071
 2709SOL     OW 8141   4.574   0.798   3.685
 2709SOL    HW1 8142   4.570   0.874   3.750
 2709SOL    HW2 8143   4.596   0.834   3.594
 2710SOL     OW 8144   4.409   1.012   2.527
 2710SOL    HW1 8145   4.478   0.996   2.597
 2710SOL    HW2 8146   4.336   1.069   2.565
 2711SOL     OW 8147   4.410   1.161   3.665
 2711SOL    HW1 8148   4.470   1.240   3.679
 2711SOL    HW2 8149   4.324   1.192   3.624
 2712SOL     OW 8150   4.059   1.435   2.923
 2712SOL    HW1 8151   3.981   1.404   2.870
 2712SOL    HW2 8152   4.117   1.493   2.866
 2713SOL     OW 8153   4.162   0.392   3.361
 2713SOL    HW1 8154   4.244   0.336   3.370
 2713SOL    HW2 8155   4.081   0.334   3.365
 2714SOL     OW 8156   3.955   1.713   2.345
 2714SOL    HW1 8157   3.989   1.790   2.399
 2714SOL    HW2 8158   3.999   1.713   2.255
 2715SOL     OW 8159   3.954   1.434   2.400
 2715SOL    HW1 8160   3.928   1.530   2.400
 2715SOL    HW2 8161   3.883   1.380   2.445
 2716SOL     OW 8162   3.964   1.091   2.748
 2716SOL    HW1 8163   3.978   1.007   2.800
 2716SOL    HW2 8164   3.909   1.155   2.803
 2717SOL     OW 8165   4.344   1.786   3.301
 2717SOL    HW1 8166   4.252   1.769   3.336
 2717SOL    HW2 8167   4.372   1.878   3.327
 2718SOL     OW 8168   4.330   0.964   1.985
 2718SOL    HW1 8169   4.337   1.048   1.931
 2718SOL    HW2 8170   4.376   0.977   2.073
 2719SOL     OW 8171   3.846   0.643   2.425
 2719SOL    HW1 8172   3.801   0.555   2.442
 2719SOL    HW2 8173   3.845   0.697   2.509
 2720SOL     OW 8174   3.751   1.596   1.979
 2720SOL    HW1 8175   3.732   1.500   2.000
 2720SOL    HW2 8176   3.718   1.654   2.054
 2721SOL     OW 8177   3.837   0.737   3.459
 2721SOL    HW1 8178   3.925   0.724   3.504
 2721SOL    HW2 8179   3.824   0.834   3.437
 2722SOL     OW 8180   4.337   1.365   2.588
 2722SOL    HW1 8181   4.288   1.278   2.597
 2722SOL    HW2 8182   4.314   1.408   2.501
 2723SOL     OW 8183   4.533   0.004   2.364
 2723SOL    HW1 8184   4.573   0.095   2.355
 2723SOL    HW2 8185   4.433   0.012   2.370
 2724SOL     OW 8186   3.921   0.976   3.126
 2724SOL    HW1 8187   4.010   0.931   3.112
 2724SOL    HW2 8188   3.848   0.911   3.107
 2725SOL     OW 8189   4.041   0.251   3.663
 2725SOL    HW1 8190   4.112   0.322   3.669
 2725SOL    HW2 8191   3.953   0.290   3.691
 2726SOL     OW 8192   4.322   0.729   2.132
 2726SOL    HW1 8193   4.346   0.798   2.064
 2726SOL    HW2 8194   4.244   0.762   2.186
 2727SOL     OW 8195   4.531   0.605   3.327
 2727SOL    HW1 8196   4.484   0.602   3.416
 2727SOL    HW2 8197   4.480   0.550   3.261
 2728SOL     OW 8198   3.800   0.811   2.651
 2728SOL    HW1 8199   3.899   0.799   2.660
 2728SOL    HW2 8200   3.776   0.906   2.672
 2729SOL     OW 8201   3.854   1.821   3.433
 2729SOL    HW1 8202   3.844   1.806   3.532
 2729SOL    HW2 8203   3.768   1.857   3.397
 2730SOL     OW 8204   4.589   0.348   2.057
 2730SOL    HW1 8205   4.648   0.411   2.008
 2730SOL    HW2 8206   4.608   0.254   2.028
 2731SOL     OW 8207   4.274   0.196   2.747
 2731SOL    HW1 8208   4.269   0.191   2.847
 2731SOL    HW2 8209   4.276   0.292   2.718
 2732SOL     OW 8210   4.075   1.801   2.715
 2732SOL    HW1 8211   4.125   1.715   2.721
 2732SOL    HW2 8212   4.140   1.878   2.712
 2733SOL     OW 8213   4.045   0.943   2.104
 2733SOL    HW1 8214   4.127   0.982   2.062
 2733SOL    HW2 8215   4.018   0.861   2.055
 2734SOL     OW 8216   4.185   1.266   3.589
 2734SOL    HW1 8217   4.135   1.267   3.503
 2734SOL    HW2 8218   4.122   1.248   3.665
 2735SOL     OW 8219   4.835   1.776   2.099
 2735SOL    HW1 8220   4.775   1.714   2.149
 2735SOL    HW2 8221   4.866   1.732   2.014
 2736SOL     OW 8222   3.926   0.285   3.360
 2736SOL    HW1 8223   3.846   0.345   3.347
 2736SOL    HW2 8224   3.916   0.236   3.446
 2737SOL     OW 8225   4.188   1.743   2.185
 2737SOL    HW1 8226   4.221   1.782   2.271
 2737SOL    HW2 8227   4.264   1.736   2.120
 2738SOL     OW 8228   3.973   1.785   3.103
 2738SOL    HW1 8229   4.030   1.720   3.153
 2738SOL    HW2 8230   3.957   1.752   3.010
 2739SOL     OW 8231   4.106   0.700   2.342
 2739SOL    HW1 8232   4.151   0.610   2.339
 2739SOL    HW2 8233   4.012   0.689   2.375
 2740SOL     OW 8234   4.338   0.122   1.979
 2740SOL    HW1 8235   4.436   0.100   1.986
 2740SOL    HW2 8236   4.307   0.105   1.886
 2741SOL     OW 8237   4.505   0.264   3.611
 2741SOL    HW1 8238   4.572   0.203   3.654
 2741SOL    HW2 8239   4.432   0.283   3.676
 2742SOL     OW 8240   4.527   1.402   2.786
 2742SOL    HW1 8241   4.617   1.416   2.744
 2742SOL    HW2 8242   4.456   1.404   2.715
 2743SOL     OW 8243   4.646   0.503   2.761
 2743SOL    HW1 8244   4.621   0.494   2.665
 2743SOL    HW2 8245   4.694   0.421   2.792
 2744SOL     OW 8246   4.263   0.064   2.374
 2744SOL    HW1 8247   4.182   0.065   2.432
 2744SOL    HW2 8248   4.266   0.147   2.319
 2745SOL     OW 8249   4.021   0.035   2.033
 2745SOL    HW1 8250   4.070   0.119   2.012
 2745SOL    HW2 8251   4.083  -0.030   2.078
 2746SOL     OW 8252   4.183   1.152   2.603
 2746SOL    HW1 8253   4.112   1.125   2.668
 2746SOL    HW2 8254   4.157   1.124   2.510
 2747SOL     OW 8255   3.802   0.556   3.248
 2747SOL    HW1 8256   3.894   0.555   3.207
 2747SOL    HW2 8257   3.796   0.630   3.315
 2748SOL     OW 8258   4.285   0.222   3.009
 2748SOL    HW1 8259   4.323   0.138   3.046
 2748SOL    HW2 8260   4.197   0.241   3.053
 2749SOL     OW 8261   4.212   1.385   2.036
 2749SOL    HW1 8262   4.125   1.370   2.083
 2749SOL    HW2 8263   4.195   1.411   1.941
 2750SOL     OW 8264   4.251   0.256   2.190
 2750SOL    HW1 8265   4.278   0.197   2.115
 2750SOL    HW2 8266   4.251   0.351   2.159
 2751SOL     OW 8267   4.639   0.089   3.264
 2751SOL    HW1 8268   4.664   0.069   3.169
 2751SOL    HW2 8269   4.711   0.145   3.306
 2752SOL     OW 8270   4.429   1.050   2.230
 2752SOL    HW1 8271   4.415   1.057   2.329
 2752SOL    HW2 8272   4.513   0.999   2.212
 2753SOL     OW 8273   4.134   0.813   3.113
 2753SOL    HW1 8274   4.220   0.825   3.163
 2753SOL    HW2 8275   4.092   0.726   3.140
 2754SOL     OW 8276   3.788   1.564   3.193
 2754SOL    HW1 8277   3.742   1.646   3.159
 2754SOL    HW2 8278   3.886   1.583   3.202
 2755SOL     OW 8279   4.091   1.100   2.363
 2755SOL    HW1 8280   4.084   1.183   2.307
 2755SOL    HW2 8281   4.095   1.020   2.303
 2756SOL     OW 8282   4.290   0.537   2.727
 2756SOL    HW1 8283   4.302   0.603   2.653
 2756SOL    HW2 8284   4.336   0.571   2.810
 2757SOL     OW 8285   4.078   1.510   3.191
 2757SOL    HW1 8286   4.057   1.466   3.104
 2757SOL    HW2 8287   4.175   1.536   3.194
 2758SOL     OW 8288   4.126   0.751   3.460
 2758SOL    HW1 8289   4.194   0.806   3.413
 2758SOL    HW2 8290   4.166   0.663   3.487
 2759SOL     OW 8291   4.228   0.050   3.602
 2759SOL    HW1 8292   4.186  -0.007   3.532
 2759SOL    HW2 8293   4.162   0.119   3.634
 2760SOL     OW 8294   4.297   0.870   2.891
 2760SOL    HW1 8295   4.341   0.959   2.882
 2760SOL    HW2 8296   4.234   0.870   2.968
 2761SOL     OW 8297   4.031   0.213   3.093
 2761SOL    HW1 8298   4.008   0.250   3.183
 2761SOL    HW2 8299   4.001   0.118   3.087
 2762SOL     OW 8300   3.761   1.310   3.144
 2762SOL    HW1 8301   3.814   1.261   3.212
 2762SOL    HW2 8302   3.783   1.408   3.149
 2763SOL     OW 8303   4.456   0.634   2.926
 2763SOL    HW1 8304   4.515   0.608   2.850
 2763SOL    HW2 8305   4.428   0.730   2.915
 2764SOL     OW 8306   4.031   0.063   2.480
 2764SOL    HW1 8307   4.020   0.157   2.513
 2764SOL    HW2 8308   4.026   0.000   2.557
 2765SOL     OW 8309   4.747   0.766   2.828
 2765SOL    HW1 8310   4.762   0.787   2.924
 2765SOL    HW2 8311   4.717   0.671   2.819
 2766SOL     OW 8312   4.704   1.573   3.562
 2766SOL    HW1 8313   4.684   1.617   3.474
 2766SOL    HW2 8314   4.743   1.482   3.546
 2767SOL     OW 8315   4.074   0.898   3.666
 2767SOL    HW1 8316   4.150   0.942   3.714
 2767SOL    HW2 8317   4.109   0.851   3.584
 2768SOL     OW 8318   4.043   0.810   2.811
 2768SOL    HW1 8319   4.136   0.846   2.816
 2768SOL    HW2 8320   4.037   0.725   2.863
 2769SOL     OW 8321   4.063   0.509   2.868
 2769SOL    HW1 8322   4.011   0.426   2.851
 2769SOL    HW2 8323   4.140   0.514   2.804
 2770SOL     OW 8324   3.732   1.326   2.062
 2770SOL    HW1 8325   3.639   1.347   2.031
 2770SOL    HW2 8326   3.742   1.227   2.075
 2771SOL     OW 8327   3.812   1.801   2.789
 2771SOL    HW1 8328   3.770   1.715   2.762
 2771SOL    HW2 8329   3.906   1.804   2.755
 2772SOL     OW 8330   4.228   1.568   2.772
 2772SOL    HW1 8331   4.294   1.642   2.781
 2772SOL    HW2 8332   4.272   1.489   2.730
 2773SOL     OW 8333   3.764   0.544   2.976
 2773SOL    HW1 8334   3.849   0.511   2.935
 2773SOL    HW2 8335   3.777   0.559   3.074
 2774SOL     OW 8336   3.913   0.520   3.584
 2774SOL    HW1 8337   3.972   0.480   3.514
 2774SOL    HW2 8338   3.855   0.591   3.543
 2775SOL     OW 8339   4.539   0.572   2.187
 2775SOL    HW1 8340   4.546   0.483   2.141
 2775SOL    HW2 8341   4.445   0.606   2.179
 2776SOL     OW 8342   3.976   1.564   3.606
 2776SOL    HW1 8343   3.946   1.621   3.682
 2776SOL    HW2 8344   3.969   1.467   3.632
 2777SOL     OW 8345   4.395   0.464   3.131
 2777SOL    HW1 8346   4.361   0.375   3.101
 2777SOL    HW2 8347   4.421   0.518   3.051
 2778SOL     OW 8348   4.197   0.500   2.053
 2778SOL    HW1 8349   4.258   0.580   2.057
 2778SOL    HW2 8350   4.102   0.531   2.060
 2779SOL     OW 8351   3.883   1.137   3.328
 2779SOL    HW1 8352   3.905   1.076   3.404
 2779SOL    HW2 8353   3.893   1.088   3.242
 2780SOL     OW 8354   3.807   1.258   2.884
 2780SOL    HW1 8355   3.802   1.257   2.984
 2780SOL    HW2 8356   3.724   1.217   2.846
 2781SOL     OW 8357   4.412   1.662   3.578
 2781SOL    HW1 8358   4.356   1.743   3.587
 2781SOL    HW2 8359   4.464   1.666   3.492
 2782SOL     OW 8360   3.854   1.794   3.713
 2782SOL    HW1 8361   3.813   1.720   3.766
 2782SOL    HW2 8362   3.918   1.845   3.771
 2783SOL     OW 8363   4.554   1.273   3.284
 2783SOL    HW1 8364   4.549   1.306   3.379
 2783SOL    HW2 8365   4.468   1.292   3.238
 2784SOL     OW 8366   4.396   1.616   2.016
 2784SOL    HW1 8367   4.405   1.626   1.917
 2784SOL    HW2 8368   4.356   1.527   2.037
 2785SOL     OW 8369   3.987   0.326   2.582
 2785SOL    HW1 8370   3.908   0.377   2.548
 2785SOL    HW2 8371   3.978   0.311   2.680
 2786SOL     OW 8372   4.546   1.002   3.234
 2786SOL    HW1 8373   4.586   1.001   3.142
 2786SOL    HW2 8374   4.556   1.094   3.274
 2787SOL     OW 8375   4.096   1.288   3.352
 2787SOL    HW1 8376   4.083   1.381   3.318
 2787SOL    HW2 8377   4.012   1.236   3.339
 2788SOL     OW 8378   4.314   1.487   2.353
 2788SOL    HW1 8379   4.356   1.429   2.283
 2788SOL    HW2 8380   4.270   1.566   2.309
 2789SOL     OW 8381   3.979   1.348   2.152
 2789SOL    HW1 8382   3.883   1.349   2.125
 2789SOL    HW2 8383   3.991   1.401   2.236
 2790SOL     OW 8384   3.829   1.013   3.588
 2790SOL    HW1 8385   3.752   0.980   3.642
 2790SOL    HW2 8386   3.914   0.983   3.630
 2791SOL     OW 8387   4.396   0.203   3.351
 2791SOL    HW1 8388   4.486   0.187   3.311
 2791SOL    HW2 8389   4.404   0.208   3.450
 2792SOL     OW 8390   3.799   0.345   1.895
 2792SOL    HW1 8391   3.707   0.317   1.866
 2792SOL    HW2 8392   3.830   0.422   1.839
 2793SOL     OW 8393   3.796   0.166   2.180
 2793SOL    HW1 8394   3.779   0.249   2.126
 2793SOL    HW2 8395   3.886   0.129   2.158
 2794SOL     OW 8396   4.337   0.842   3.293
 2794SOL    HW1 8397   4.393   0.923   3.276
 2794SOL    HW2 8398   4.396   0.762   3.296
 2795SOL     OW 8399   4.440   0.565   3.570
 2795SOL    HW1 8400   4.459   0.630   3.644
 2795SOL    HW2 8401   4.500   0.485   3.579
 2796SOL     OW 8402   4.114   1.741   3.422
 2796SOL    HW1 8403   4.023   1.782   3.420
 2796SOL    HW2 8404   4.107   1.647   3.454
 2797SOL     OW 8405   4.318   0.745   2.514
 2797SOL    HW1 8406   4.368   0.830   2.495
 2797SOL    HW2 8407   4.230   0.747   2.466
 2798SOL     OW 8408   4.385   1.790   2.815
 2798SOL    HW1 8409   4.339   1.878   2.802
 2798SOL    HW2 8410   4.484   1.802   2.808
 2799SOL     OW 8411   3.945   1.314   3.706
 2799SOL    HW1 8412   3.880   1.241   3.685
 2799SOL    HW2 8413   3.949   1.328   3.804
 2800SOL     OW 8414   3.803   1.240   2.515
 2800SOL    HW1 8415   3.802   1.193   2.603
 2800SOL    HW2 8416   3.885   1.212   2.464
 2801SOL     OW 8417   4.396   1.391   3.486
 2801SOL    HW1 8418   4.318   1.341   3.524
 2801SOL    HW2 8419   4.393   1.486   3.517
 2802SOL     OW 8420   4.152   0.424   2.382
 2802SOL    HW1 8421   4.182   0.352   2.320
 2802SOL    HW2 8422   4.113   0.384   2.465
 2803SOL     OW 8423   4.041   0.547   3.142
 2803SOL    HW1 8424   4.079   0.488   3.214
 2803SOL    HW2 8425   4.081   0.521   3.054
 2804SOL     OW 8426   4.536   1.586   2.549
 2804SOL    HW1 8427   4.568   1.596   2.455
 2804SOL    HW2 8428   4.457   1.524   2.551
 2805SOL     OW 8429   4.725   0.034   3.016
 2805SOL    HW1 8430   4.662  -0.038   2.985
 2805SOL    HW2 8431   4.818  -0.002   3.016
 2806SOL     OW 8432   4.342   1.567   3.146
 2806SOL    HW1 8433   4.337   1.649   3.203
 2806SOL    HW2 8434   4.431   1.564   3.101
 2807SOL     OW 8435   3.763   1.077   2.162
 2807SOL    HW1 8436   3.862   1.066   2.153
 2807SOL    HW2 8437   3.723   0.991   2.194
 2808SOL     OW 8438   3.954   0.628   3.837
 2808SOL    HW1 8439   3.861   0.626   3.874
 2808SOL    HW2 8440   3.955   0.589   3.745
 2809SOL     OW 8441   3.949   0.275   4.720
 2809SOL    HW1 8442   3.984   0.258   4.812
 2809SOL    HW2 8443   3.861   0.230   4.708
 2810SOL     OW 8444   3.743   0.368   4.371
 2810SOL    HW1 8445   3.661   0.411   4.410
 2810SOL    HW2 8446   3.715   0.295   4.308
 2811SOL     OW 8447   4.492   1.144   4.747
 2811SOL    HW1 8448   4.414   1.161   4.807
 2811SOL    HW2 8449   4.526   1.231   4.711
 2812SOL     OW 8450   4.409   1.012   4.389
 2812SOL    HW1 8451   4.478   0.996   4.459
 2812SOL    HW2 8452   4.336   1.069   4.427
 2813SOL     OW 8453   3.955   1.713   4.207
 2813SOL    HW1 8454   3.989   1.790   4.261
 2813SOL    HW2 8455   3.999   1.713   4.117
 2814SOL     OW 8456   3.954   1.434   4.262
 2814SOL    HW1 8457   3.928   1.530   4.262
 2814SOL    HW2 8458   3.883   1.380   4.307
 2815SOL     OW 8459   3.964   1.091   4.610
 2815SOL    HW1 8460   3.978   1.007   4.662
 2815SOL    HW2 8461   3.909   1.155   4.665
 2816SOL     OW 8462   4.330   0.964   3.847
 2816SOL    HW1 8463   4.337   1.048   3.793
 2816SOL    HW2 8464   4.376   0.977   3.935
 2817SOL     OW 8465   3.846   0.643   4.287
 2817SOL    HW1 8466   3.801   0.555   4.304
 2817SOL    HW2 8467   3.845   0.697   4.371
 2818SOL     OW 8468   3.751   1.596   3.841
 2818SOL    HW1 8469   3.732   1.500   3.862
 2818SOL    HW2 8470   3.718   1.654   3.916
 2819SOL     OW 8471   4.337   1.365   4.450
 2819SOL    HW1 8472   4.288   1.278   4.459
 2819SOL    HW2 8473   4.314   1.408   4.363
 2820SOL     OW 8474   4.533   0.004   4.226
 2820SOL    HW1 8475   4.573   0.095   4.217
 2820SOL    HW2 8476   4.433   0.012   4.232
 2821SOL     OW 8477   4.322   0.729   3.994
 2821SOL    HW1 8478   4.346   0.798   3.926
 2821SOL    HW2 8479   4.244   0.762   4.048
 2822SOL     OW 8480   3.800   0.811   4.513
 2822SOL    HW1 8481   3.899   0.799   4.522
 2822SOL    HW2 8482   3.776   0.906   4.534
 2823SOL     OW 8483   4.589   0.348   3.919
 2823SOL    HW1 8484   4.648   0.411   3.870
 2823SOL    HW2 8485   4.608   0.254   3.890
 2824SOL     OW 8486   4.075   1.801   4.577
 2824SOL    HW1 8487   4.125   1.715   4.583
 2824SOL    HW2 8488   4.140   1.878   4.574
 2825SOL     OW 8489   4.045   0.943   3.966
 2825SOL    HW1 8490   4.127   0.982   3.924
 2825SOL    HW2 8491   4.018   0.861   3.917
 2826SOL     OW 8492   4.835   1.776   3.961
 2826SOL    HW1 8493   4.775   1.714   4.011
 2826SOL    HW2 8494   4.866   1.732   3.876
 2827SOL     OW 8495   4.188   1.743   4.047
 2827SOL    HW1 8496   4.221   1.782   4.133
 2827SOL    HW2 8497   4.264   1.736   3.982
 2828SOL     OW 8498   4.106   0.700   4.204
 2828SOL    HW1 8499   4.151   0.610   4.201
 2828SOL    HW2 8500   4.012   0.689   4.237
 2829SOL     OW 8501   4.338   0.122   3.841
 2829SOL    HW1 8502   4.436   0.100   3.848
 2829SOL    HW2 8503   4.307   0.105   3.748
 2830SOL     OW 8504   4.527   1.402   4.648
 2830SOL    HW1 8505   4.617   1.416   4.606
 2830SOL    HW2 8506   4.456   1.404   4.577
 2831SOL     OW 8507   4.263   0.064   4.236
 2831SOL    HW1 8508   4.182   0.065   4.294
 2831SOL    HW2 8509   4.266   0.147   4.181
 2832SOL     OW 8510   4.021   0.035   3.895
 2832SOL    HW1 8511   4.070   0.119   3.874
 2832SOL    HW2 8512   4.083  -0.030   3.940
 2833SOL     OW 8513   4.183   1.152   4.465
 2833SOL    HW1 8514   4.112   1.125   4.530
 2833SOL    HW2 8515   4.157   1.124   4.372
 2834SOL     OW 8516   4.212   1.385   3.898
 2834SOL    HW1 8517   4.125   1.370   3.945
 2834SOL    HW2 8518   4.195   1.411   3.803
 2835SOL     OW 8519   4.251   0.256   4.052
 2835SOL    HW1 8520   4.278   0.197   3.977
 2835SOL    HW2 8521   4.251   0.351   4.021
 2836SOL     OW 8522   4.429   1.050   4.092
 2836SOL    HW1 8523   4.415   1.057   4.191
 2836SOL    HW2 8524   4.513   0.999   4.074
 2837SOL     OW 8525   4.091   1.100   4.225
 2837SOL    HW1 8526   4.084   1.183   4.169
 2837SOL    HW2 8527   4.095   1.020   4.165
 2838SOL     OW 8528   4.290   0.537   4.589
 2838SOL    HW1 8529   4.302   0.603   4.515
 2838SOL    HW2 8530   4.336   0.571   4.672
 2839SOL     OW 8531   4.031   0.063   4.342
 2839SOL    HW1 8532   4.020   0.157   4.375
 2839SOL    HW2 8533   4.026   0.000   4.419
 2840SOL     OW 8534   4.747   0.766   4.690
 2840SOL    HW1 8535   4.762   0.787   4.786
 2840SOL    HW2 8536   4.717   0.671   4.681
 2841SOL     OW 8537   3.732   1.326   3.924
 2841SOL    HW1 8538   3.639   1.347   3.893
 2841SOL    HW2 8539   3.742   1.227   3.937
 2842SOL     OW 8540   3.812   1.801   4.651
 2842SOL    HW1 8541   3.770   1.715   4.624
 2842SOL    HW2 8542   3.906   1.804   4.617
 2843SOL     OW 8543   4.539   0.572   4.049
 2843SOL    HW1 8544   4.546   0.483   4.003
 2843SOL    HW2 8545   4.445   0.606   4.041
 2844SOL     OW 8546   4.197   0.500   3.915
 2844SOL    HW1 8547   4.258   0.580   3.919
 2844SOL    HW2 8548   4.102   0.531   3.922
 2845SOL     OW 8549   4.396   1.616   3.878
 2845SOL    HW1 8550   4.405   1.626   3.779
 2845SOL    HW2 8551   4.356   1.527   3.899
 2846SOL     OW 8552   3.987   0.326   4.444
 2846SOL    HW1 8553   3.908   0.377   4.410
 2846SOL    HW2 8554   3.978   0.311   4.542
 2847SOL     OW 8555   4.314   1.487   4.215
 2847SOL    HW1 8556   4.356   1.429   4.145
 2847SOL    HW2 8557   4.270   1.566   4.171
 2848SOL     OW 8558   3.979   1.348   4.014
 2848SOL    HW1 8559   3.883   1.349   3.987
 2848SOL    HW2 8560   3.991   1.401   4.098
 2849SOL     OW 8561   3.799   0.345   3.757
 2849SOL    HW1 8562   3.707   0.317   3.728
 2849SOL    HW2 8563   3.830   0.422   3.701
 2850SOL     OW 8564   3.796   0.166   4.042
 2850SOL    HW1 8565   3.779   0.249   3.988
 2850SOL    HW2 8566   3.886   0.129   4.020
 2851SOL     OW 8567   4.318   0.745   4.376
 2851SOL    HW1 8568   4.368   0.830   4.357
 2851SOL    HW2 8569   4.230   0.747   4.328
 2852SOL     OW 8570   4.385   1.790   4.677
 2852SOL    HW1 8571   4.339   1.878   4.664
 2852SOL    HW2 8572   4.484   1.802   4.670
 2853SOL     OW 8573   3.803   1.240   4.377
 2853SOL    HW1 8574   3.802   1.193   4.465
 2853SOL    HW2 8575   3.885   1.212   4.326
 2854SOL     OW 8576   4.152   0.424   4.244
 2854SOL    HW1 8577   4.182   0.352   4.182
 2854SOL    HW2 8578   4.113   0.384   4.327
 2855SOL     OW 8579   4.536   1.586   4.411
 2855SOL    HW1 8580   4.568   1.596   4.317
 2855SOL    HW2 8581   4.457   1.524   4.413
 2856SOL     OW 8582   3.763   1.077   4.024
 2856SOL    HW1 8583   3.862   1.066   4.015
 2856SOL    HW2 8584   3.723   0.991   4.056
 2857SOL     OW 8585   3.954   2.490   0.113
 2857SOL    HW1 8586   3.861   2.488   0.150
 2857SOL    HW2 8587   3.955   2.451   0.021
 2858SOL     OW 8588   3.949   2.137   0.996
 2858SOL    HW1 8589   3.984   2.120   1.088
 2858SOL    HW2 8590   3.861   2.092   0.984
 2859SOL     OW 8591   3.743   2.230   0.647
 2859SOL    HW1 8592   3.661   2.273   0.686
 2859SOL    HW2 8593   3.715   2.157   0.584
 2860SOL     OW 8594   4.293   3.137   1.165
 2860SOL    HW1 8595   4.200   3.130   1.128
 2860SOL    HW2 8596   4.304   3.226   1.209
 2861SOL     OW 8597   4.574   2.660   1.823
 2861SOL    HW1 8598   4.570   2.736   1.888
 2861SOL    HW2 8599   4.596   2.696   1.732
 2862SOL     OW 8600   4.409   2.874   0.665
 2862SOL    HW1 8601   4.478   2.858   0.735
 2862SOL    HW2 8602   4.336   2.931   0.703
 2863SOL     OW 8603   4.410   3.023   1.803
 2863SOL    HW1 8604   4.470   3.102   1.817
 2863SOL    HW2 8605   4.324   3.054   1.762
 2864SOL     OW 8606   4.059   3.297   1.061
 2864SOL    HW1 8607   3.981   3.266   1.008
 2864SOL    HW2 8608   4.117   3.355   1.004
 2865SOL     OW 8609   4.162   2.254   1.499
 2865SOL    HW1 8610   4.244   2.198   1.508
 2865SOL    HW2 8611   4.081   2.196   1.503
 2866SOL     OW 8612   3.955   3.575   0.483
 2866SOL    HW1 8613   3.989   3.652   0.537
 2866SOL    HW2 8614   3.999   3.575   0.393
 2867SOL     OW 8615   3.954   3.296   0.538
 2867SOL    HW1 8616   3.928   3.392   0.538
 2867SOL    HW2 8617   3.883   3.242   0.583
 2868SOL     OW 8618   3.964   2.953   0.886
 2868SOL    HW1 8619   3.978   2.869   0.938
 2868SOL    HW2 8620   3.909   3.017   0.941
 2869SOL     OW 8621   4.344   3.648   1.439
 2869SOL    HW1 8622   4.252   3.631   1.474
 2869SOL    HW2 8623   4.372   3.740   1.465
 2870SOL     OW 8624   4.330   2.826   0.123
 2870SOL    HW1 8625   4.337   2.910   0.069
 2870SOL    HW2 8626   4.376   2.839   0.211
 2871SOL     OW 8627   3.846   2.505   0.563
 2871SOL    HW1 8628   3.801   2.417   0.580
 2871SOL    HW2 8629   3.845   2.559   0.647
 2872SOL     OW 8630   3.751   3.458   0.117
 2872SOL    HW1 8631   3.732   3.362   0.138
 2872SOL    HW2 8632   3.718   3.516   0.192
 2873SOL     OW 8633   3.837   2.599   1.597
 2873SOL    HW1 8634   3.925   2.586   1.642
 2873SOL    HW2 8635   3.824   2.696   1.575
 2874SOL     OW 8636   4.337   3.227   0.726
 2874SOL    HW1 8637   4.288   3.140   0.735
 2874SOL    HW2 8638   4.314   3.270   0.639
 2875SOL     OW 8639   4.533   1.866   0.502
 2875SOL    HW1 8640   4.573   1.957   0.493
 2875SOL    HW2 8641   4.433   1.874   0.508
 2876SOL     OW 8642   3.921   2.838   1.264
 2876SOL    HW1 8643   4.010   2.793   1.250
 2876SOL    HW2 8644   3.848   2.773   1.245
 2877SOL     OW 8645   4.041   2.113   1.801
 2877SOL    HW1 8646   4.112   2.184   1.807
 2877SOL    HW2 8647   3.953   2.152   1.829
 2878SOL     OW 8648   4.322   2.591   0.270
 2878SOL    HW1 8649   4.346   2.660   0.202
 2878SOL    HW2 8650   4.244   2.624   0.324
 2879SOL     OW 8651   4.531   2.467   1.465
 2879SOL    HW1 8652   4.484   2.464   1.554
 2879SOL    HW2 8653   4.480   2.412   1.399
 2880SOL     OW 8654   3.800   2.673   0.789
 2880SOL    HW1 8655   3.899   2.661   0.798
 2880SOL    HW2 8656   3.776   2.768   0.810
 2881SOL     OW 8657   3.854   3.683   1.571
 2881SOL    HW1 8658   3.844   3.668   1.670
 2881SOL    HW2 8659   3.768   3.719   1.535
 2882SOL     OW 8660   4.589   2.210   0.195
 2882SOL    HW1 8661   4.648   2.273   0.146
 2882SOL    HW2 8662   4.608   2.116   0.166
 2883SOL     OW 8663   4.274   2.058   0.885
 2883SOL    HW1 8664   4.269   2.053   0.985
 2883SOL    HW2 8665   4.276   2.154   0.856
 2884SOL     OW 8666   4.075   3.663   0.853
 2884SOL    HW1 8667   4.125   3.577   0.859
 2884SOL    HW2 8668   4.140   3.740   0.850
 2885SOL     OW 8669   4.045   2.805   0.242
 2885SOL    HW1 8670   4.127   2.844   0.200
 2885SOL    HW2 8671   4.018   2.723   0.193
 2886SOL     OW 8672   4.185   3.128   1.727
 2886SOL    HW1 8673   4.135   3.129   1.641
 2886SOL    HW2 8674   4.122   3.110   1.803
 2887SOL     OW 8675   4.835   3.638   0.237
 2887SOL    HW1 8676   4.775   3.576   0.287
 2887SOL    HW2 8677   4.866   3.594   0.152
 2888SOL     OW 8678   3.926   2.147   1.498
 2888SOL    HW1 8679   3.846   2.207   1.485
 2888SOL    HW2 8680   3.916   2.098   1.584
 2889SOL     OW 8681   4.188   3.605   0.323
 2889SOL    HW1 8682   4.221   3.644   0.409
 2889SOL    HW2 8683   4.264   3.598   0.258
 2890SOL     OW 8684   3.973   3.647   1.241
 2890SOL    HW1 8685   4.030   3.582   1.291
 2890SOL    HW2 8686   3.957   3.614   1.148
 2891SOL     OW 8687   4.106   2.562   0.480
 2891SOL    HW1 8688   4.151   2.472   0.477
 2891SOL    HW2 8689   4.012   2.551   0.513
 2892SOL     OW 8690   4.505   2.126   1.749
 2892SOL    HW1 8691   4.572   2.065   1.792
 2892SOL    HW2 8692   4.432   2.145   1.814
 2893SOL     OW 8693   4.527   3.264   0.924
 2893SOL    HW1 8694   4.617   3.278   0.882
 2893SOL    HW2 8695   4.456   3.266   0.853
 2894SOL     OW 8696   4.646   2.365   0.899
 2894SOL    HW1 8697   4.621   2.356   0.803
 2894SOL    HW2 8698   4.694   2.283   0.930
 2895SOL     OW 8699   4.263   1.926   0.512
 2895SOL    HW1 8700   4.182   1.927   0.570
 2895SOL    HW2 8701   4.266   2.009   0.457
 2896SOL     OW 8702   4.021   1.897   0.171
 2896SOL    HW1 8703   4.070   1.981   0.150
 2896SOL    HW2 8704   4.083   1.832   0.216
 2897SOL     OW 8705   4.183   3.014   0.741
 2897SOL    HW1 8706   4.112   2.987   0.806
 2897SOL    HW2 8707   4.157   2.986   0.648
 2898SOL     OW 8708   3.802   2.418   1.386
 2898SOL    HW1 8709   3.894   2.417   1.345
 2898SOL    HW2 8710   3.796   2.492   1.453
 2899SOL     OW 8711   4.285   2.084   1.147
 2899SOL    HW1 8712   4.323   2.000   1.184
 2899SOL    HW2 8713   4.197   2.103   1.191
 2900SOL     OW 8714   4.212   3.247   0.174
 2900SOL    HW1 8715   4.125   3.232   0.221
 2900SOL    HW2 8716   4.195   3.273   0.079
 2901SOL     OW 8717   4.251   2.118   0.328
 2901SOL    HW1 8718   4.278   2.059   0.253
 2901SOL    HW2 8719   4.251   2.213   0.297
 2902SOL     OW 8720   4.639   1.951   1.402
 2902SOL    HW1 8721   4.664   1.931   1.307
 2902SOL    HW2 8722   4.711   2.007   1.444
 2903SOL     OW 8723   4.429   2.912   0.368
 2903SOL    HW1 8724   4.415   2.919   0.467
 2903SOL    HW2 8725   4.513   2.861   0.350
 2904SOL     OW 8726   4.134   2.675   1.251
 2904SOL    HW1 8727   4.220   2.687   1.301
 2904SOL    HW2 8728   4.092   2.588   1.278
 2905SOL     OW 8729   3.788   3.426   1.331
 2905SOL    HW1 8730   3.742   3.508   1.297
 2905SOL    HW2 8731   3.886   3.445   1.340
 2906SOL     OW 8732   4.091   2.962   0.501
 2906SOL    HW1 8733   4.084   3.045   0.445
 2906SOL    HW2 8734   4.095   2.882   0.441
 2907SOL     OW 8735   4.290   2.399   0.865
 2907SOL    HW1 8736   4.302   2.465   0.791
 2907SOL    HW2 8737   4.336   2.433   0.948
 2908SOL     OW 8738   4.078   3.372   1.329
 2908SOL    HW1 8739   4.057   3.328   1.242
 2908SOL    HW2 8740   4.175   3.398   1.332
 2909SOL     OW 8741   4.126   2.613   1.598
 2909SOL    HW1 8742   4.194   2.668   1.551
 2909SOL    HW2 8743   4.166   2.525   1.625
 2910SOL     OW 8744   4.228   1.912   1.740
 2910SOL    HW1 8745   4.186   1.855   1.670
 2910SOL    HW2 8746   4.162   1.981   1.772
 2911SOL     OW 8747   4.297   2.732   1.029
 2911SOL    HW1 8748   4.341   2.821   1.020
 2911SOL    HW2 8749   4.234   2.732   1.106
 2912SOL     OW 8750   4.031   2.075   1.231
 2912SOL    HW1 8751   4.008   2.112   1.321
 2912SOL    HW2 8752   4.001   1.980   1.225
 2913SOL     OW 8753   3.761   3.172   1.282
 2913SOL    HW1 8754   3.814   3.123   1.350
 2913SOL    HW2 8755   3.783   3.270   1.287
 2914SOL     OW 8756   4.456   2.496   1.064
 2914SOL    HW1 8757   4.515   2.470   0.988
 2914SOL    HW2 8758   4.428   2.592   1.053
 2915SOL     OW 8759   4.031   1.925   0.618
 2915SOL    HW1 8760   4.020   2.019   0.651
 2915SOL    HW2 8761   4.026   1.862   0.695
 2916SOL     OW 8762   4.747   2.628   0.966
 2916SOL    HW1 8763   4.762   2.649   1.062
 2916SOL    HW2 8764   4.717   2.533   0.957
 2917SOL     OW 8765   4.704   3.435   1.700
 2917SOL    HW1 8766   4.684   3.479   1.612
 2917SOL    HW2 8767   4.743   3.344   1.684
 2918SOL     OW 8768   4.074   2.760   1.804
 2918SOL    HW1 8769   4.150   2.804   1.852
 2918SOL    HW2 8770   4.109   2.713   1.722
 2919SOL     OW 8771   4.043   2.672   0.949
 2919SOL    HW1 8772   4.136   2.708   0.954
 2919SOL    HW2 8773   4.037   2.587   1.001
 2920SOL     OW 8774   4.063   2.371   1.006
 2920SOL    HW1 8775   4.011   2.288   0.989
 2920SOL    HW2 8776   4.140   2.376   0.942
 2921SOL     OW 8777   3.732   3.188   0.200
 2921SOL    HW1 8778   3.639   3.209   0.169
 2921SOL    HW2 8779   3.742   3.089   0.213
 2922SOL     OW 8780   3.812   3.663   0.927
 2922SOL    HW1 8781   3.770   3.577   0.900
 2922SOL    HW2 8782   3.906   3.666   0.893
 2923SOL     OW 8783   4.228   3.430   0.910
 2923SOL    HW1 8784   4.294   3.504   0.919
 2923SOL    HW2 8785   4.272   3.351   0.868
 2924SOL     OW 8786   3.764   2.406   1.114
 2924SOL    HW1 8787   3.849   2.373   1.073
 2924SOL    HW2 8788   3.777   2.421   1.212
 2925SOL     OW 8789   3.913   2.382   1.722
 2925SOL    HW1 8790   3.972   2.342   1.652
 2925SOL    HW2 8791   3.855   2.453   1.681
 2926SOL     OW 8792   4.539   2.434   0.325
 2926SOL    HW1 8793   4.546   2.345   0.279
 2926SOL    HW2 8794   4.445   2.468   0.317
 2927SOL     OW 8795   3.976   3.426   1.744
 2927SOL    HW1 8796   3.946   3.483   1.820
 2927SOL    HW2 8797   3.969   3.329   1.770
 2928SOL     OW 8798   4.395   2.326   1.269
 2928SOL    HW1 8799   4.361   2.237   1.239
 2928SOL    HW2 8800   4.421   2.380   1.189
 2929SOL     OW 8801   4.197   2.362   0.191
 2929SOL    HW1 8802   4.258   2.442   0.195
 2929SOL    HW2 8803   4.102   2.393   0.198
 2930SOL     OW 8804   3.883   2.999   1.466
 2930SOL    HW1 8805   3.905   2.938   1.542
 2930SOL    HW2 8806   3.893   2.950   1.380
 2931SOL     OW 8807   3.807   3.120   1.022
 2931SOL    HW1 8808   3.802   3.119   1.122
 2931SOL    HW2 8809   3.724   3.079   0.984
 2932SOL     OW 8810   4.412   3.524   1.716
 2932SOL    HW1 8811   4.356   3.605   1.725
 2932SOL    HW2 8812   4.464   3.528   1.630
 2933SOL     OW 8813   4.627   1.948   0.133
 2933SOL    HW1 8814   4.678   1.949   0.047
 2933SOL    HW2 8815   4.683   1.906   0.204
 2934SOL     OW 8816   3.854   3.656   1.851
 2934SOL    HW1 8817   3.813   3.582   1.904
 2934SOL    HW2 8818   3.918   3.707   1.909
 2935SOL     OW 8819   4.554   3.135   1.422
 2935SOL    HW1 8820   4.549   3.168   1.517
 2935SOL    HW2 8821   4.468   3.154   1.376
 2936SOL     OW 8822   4.396   3.478   0.154
 2936SOL    HW1 8823   4.405   3.488   0.055
 2936SOL    HW2 8824   4.356   3.389   0.175
 2937SOL     OW 8825   3.987   2.188   0.720
 2937SOL    HW1 8826   3.908   2.239   0.686
 2937SOL    HW2 8827   3.978   2.173   0.818
 2938SOL     OW 8828   4.918   3.474   0.031
 2938SOL    HW1 8829   4.924   3.381   0.068
 2938SOL    HW2 8830   4.859   3.474  -0.049
 2939SOL     OW 8831   4.546   2.864   1.372
 2939SOL    HW1 8832   4.586   2.863   1.280
 2939SOL    HW2 8833   4.556   2.956   1.412
 2940SOL     OW 8834   4.096   3.150   1.490
 2940SOL    HW1 8835   4.083   3.243   1.456
 2940SOL    HW2 8836   4.012   3.098   1.477
 2941SOL     OW 8837   4.314   3.349   0.491
 2941SOL    HW1 8838   4.356   3.291   0.421
 2941SOL    HW2 8839   4.270   3.428   0.447
 2942SOL     OW 8840   3.979   3.210   0.290
 2942SOL    HW1 8841   3.883   3.211   0.263
 2942SOL    HW2 8842   3.991   3.263   0.374
 2943SOL     OW 8843   3.829   2.875   1.726
 2943SOL    HW1 8844   3.752   2.842   1.780
 2943SOL    HW2 8845   3.914   2.845   1.768
 2944SOL     OW 8846   4.396   2.065   1.489
 2944SOL    HW1 8847   4.486   2.049   1.449
 2944SOL    HW2 8848   4.404   2.070   1.588
 2945SOL     OW 8849   3.796   2.028   0.318
 2945SOL    HW1 8850   3.779   2.111   0.264
 2945SOL    HW2 8851   3.886   1.991   0.296
 2946SOL     OW 8852   4.337   2.704   1.431
 2946SOL    HW1 8853   4.393   2.785   1.414
 2946SOL    HW2 8854   4.396   2.624   1.434
 2947SOL     OW 8855   4.440   2.427   1.708
 2947SOL    HW1 8856   4.459   2.492   1.782
 2947SOL    HW2 8857   4.500   2.347   1.717
 2948SOL     OW 8858   4.114   3.603   1.560
 2948SOL    HW1 8859   4.023   3.644   1.558
 2948SOL    HW2 8860   4.107   3.509   1.592
 2949SOL     OW 8861   4.318   2.607   0.652
 2949SOL    HW1 8862   4.368   2.692   0.633
 2949SOL    HW2 8863   4.230   2.609   0.604
 2950SOL     OW 8864   4.385   3.652   0.953
 2950SOL    HW1 8865   4.339   3.740   0.940
 2950SOL    HW2 8866   4.484   3.664   0.946
 2951SOL     OW 8867   3.945   3.176   1.844
 2951SOL    HW1 8868   3.880   3.103   1.823
 2951SOL    HW2 8869   3.949   3.190   1.942
 2952SOL     OW 8870   3.803   3.102   0.653
 2952SOL    HW1 8871   3.802   3.055   0.741
 2952SOL    HW2 8872   3.885   3.074   0.602
 2953SOL     OW 8873   4.396   3.253   1.624
 2953SOL    HW1 8874   4.318   3.203   1.662
 2953SOL    HW2 8875   4.393   3.348   1.655
 2954SOL     OW 8876   4.152   2.286   0.520
 2954SOL    HW1 8877   4.182   2.214   0.458
 2954SOL    HW2 8878   4.113   2.246   0.603
 2955SOL     OW 8879   4.041   2.409   1.280
 2955SOL    HW1 8880   4.079   2.350   1.352
 2955SOL    HW2 8881   4.081   2.383   1.192
 2956SOL     OW 8882   4.536   3.448   0.687
 2956SOL    HW1 8883   4.568   3.458   0.593
 2956SOL    HW2 8884   4.457   3.386   0.689
 2957SOL     OW 8885   4.342   3.429   1.284
 2957SOL    HW1 8886   4.337   3.511   1.341
 2957SOL    HW2 8887   4.431   3.426   1.239
 2958SOL     OW 8888   3.763   2.939   0.300
 2958SOL    HW1 8889   3.862   2.928   0.291
 2958SOL    HW2 8890   3.723   2.853   0.332
 2959SOL     OW 8891   3.954   2.490   1.975
 2959SOL    HW1 8892   3.861   2.488   2.012
 2959SOL    HW2 8893   3.955   2.451   1.883
 2960SOL     OW 8894   3.949   2.137   2.858
 2960SOL    HW1 8895   3.984   2.120   2.950
 2960SOL    HW2 8896   3.861   2.092   2.846
 2961SOL     OW 8897   3.743   2.230   2.509
 2961SOL    HW1 8898   3.661   2.273   2.548
 2961SOL    HW2 8899   3.715   2.157   2.446
 2962SOL     OW 8900   4.293   3.137   3.027
 2962SOL    HW1 8901   4.200   3.130   2.990
 2962SOL    HW2 8902   4.304   3.226   3.071
 2963SOL     OW 8903   4.574   2.660   3.685
 2963SOL    HW1 8904   4.570   2.736   3.750
 2963SOL    HW2 8905   4.596   2.696   3.594
 2964SOL     OW 8906   4.409   2.874   2.527
 2964SOL    HW1 8907   4.478   2.858   2.597
 2964SOL    HW2 8908   4.336   2.931   2.565
 2965SOL     OW 8909   4.410   3.023   3.665
 2965SOL    HW1 8910   4.470   3.102   3.679
 2965SOL    HW2 8911   4.324   3.054   3.624
 2966SOL     OW 8912   4.059   3.297   2.923
 2966SOL    HW1 8913   3.981   3.266   2.870
 2966SOL    HW2 8914   4.117   3.355   2.866
 2967SOL     OW 8915   4.162   2.254   3.361
 2967SOL    HW1 8916   4.244   2.198   3.370
 2967SOL    HW2 8917   4.081   2.196   3.365
 2968SOL     OW 8918   3.955   3.575   2.345
 2968SOL    HW1 8919   3.989   3.652   2.399
 2968SOL    HW2 8920   3.999   3.575   2.255
 2969SOL     OW 8921   3.954   3.296   2.400
 2969SOL    HW1 8922   3.928   3.392   2.400
 2969SOL    HW2 8923   3.883   3.242   2.445
 2970SOL     OW 8924   3.964   2.953   2.748
 2970SOL    HW1 8925   3.978   2.869   2.800
 2970SOL    HW2 8926   3.909   3.017   2.803
 2971SOL     OW 8927   4.344   3.648   3.301
 2971SOL    HW1 8928   4.252   3.631   3.336
 2971SOL    HW2 8929   4.372   3.740   3.327
 2972SOL     OW 8930   4.330   2.826   1.985
 2972SOL    HW1 8931   4.337   2.910   1.931
 2972SOL    HW2 8932   4.376   2.839   2.073
 2973SOL     OW 8933   3.846   2.505   2.425
 2973SOL    HW1 8934   3.801   2.417   2.442
 2973SOL    HW2 8935   3.845   2.559   2.509
 2974SOL     OW 8936   3.751   3.458   1.979
 2974SOL    HW1 8937   3.732   3.362   2.000
 2974SOL    HW2 8938   3.718   3.516   2.054
 2975SOL     OW 8939   3.837   2.599   3.459
 2975SOL    HW1 8940   3.925   2.586   3.504
 2975SOL    HW2 8941   3.824   2.696   3.437
 2976SOL     OW 8942   4.337   3.227   2.588
 2976SOL    HW1 8943   4.288   3.140   2.597
 2976SOL    HW2 8944   4.314   3.270   2.501
 2977SOL     OW 8945   4.533   1.866   2.364
 2977SOL    HW1 8946   4.573   1.957   2.355
 2977SOL    HW2 8947   4.433   1.874   2.370
 2978SOL     OW 8948   3.921   2.838   3.126
 2978SOL    HW1 8949   4.010   2.793   3.112
 2978SOL    HW2 8950   3.848   2.773   3.107
 2979SOL     OW 8951   4.041   2.113   3.663
 2979SOL    HW1 8952   4.112   2.184   3.669
 2979SOL    HW2 8953   3.953   2.152   3.691
 2980SOL     OW 8954   4.322   2.591   2.132
 2980SOL    HW1 8955   4.346   2.660   2.064
 2980SOL    HW2 8956   4.244   2.624   2.186
 2981SOL     OW 8957   4.531   2.467   3.327
 2981SOL    HW1 8958   4.484   2.464   3.416
 2981SOL    HW2 8959   4.480   2.412   3.261
 2982SOL     OW 8960   3.800   2.673   2.651
 2982SOL    HW1 8961   3.899   2.661   2.660
 2982SOL    HW2 8962   3.776   2.768   2.672
 2983SOL     OW 8963   3.854   3.683   3.433
 2983SOL    HW1 8964   3.844   3.668   3.532
 2983SOL    HW2 8965   3.768   3.719   3.397
 2984SOL     OW 8966   4.589   2.210   2.057
 2984SOL    HW1 8967   4.648   2.273   2.008
 2984SOL    HW2 8968   4.608   2.116   2.028
 2985SOL     OW 8969   4.274   2.058   2.747
 2985SOL    HW1 8970   4.269   2.053   2.847
 2985SOL    HW2 8971   4.276   2.154   2.718
 2986SOL     OW 8972   4.075   3.663   2.715
 2986SOL    HW1 8973   4.125   3.577   2.721
 2986SOL    HW2 8974   4.140   3.740   2.712
 2987SOL     OW 8975   4.045   2.805   2.104
 2987SOL    HW1 8976   4.127   2.844   2.062
 2987SOL    HW2 8977   4.018   2.723   2.055
 2988SOL     OW 8978   4.185   3.128   3.589
 2988SOL    HW1 8979   4.135   3.129   3.503
 2988SOL    HW2 8980   4.122   3.110   3.665
 2989SOL     OW 8981   4.835   3.638   2.099
 2989SOL    HW1 8982   4.775   3.576   2.149
 2989SOL    HW2 8983   4.866   3.594   2.014
 2990SOL     OW 8984   3.926   2.147   3.360
 2990SOL    HW1 8985   3.846   2.207   3.347
 2990SOL    HW2 8986   3.916   2.098   3.446
 2991SOL     OW 8987   4.188   3.605   2.185
 2991SOL    HW1 8988   4.221   3.644   2.271
 2991SOL    HW2 8989   4.264   3.598   2.120
 2992SOL     OW 8990   3.973   3.647   3.103
 2992SOL    HW1 8991   4.030   3.582   3.153
 2992SOL    HW2 8992   3.957   3.614   3.010
 2993SOL     OW 8993   4.106   2.562   2.342
 2993SOL    HW1 8994   4.151   2.472   2.339
 2993SOL    HW2 8995   4.012   2.551   2.375
 2994SOL     OW 8996   4.338   1.984   1.979
 2994SOL    HW1 8997   4.436   1.962   1.986
 2994SOL    HW2 8998   4.307   1.967   1.886
 2995SOL     OW 8999   4.505   2.126   3.611
 2995SOL    HW1 9000   4.572   2.065   3.654
 2995SOL    HW2 9001   4.432   2.145   3.676
 2996SOL     OW 9002   4.527   3.264   2.786
 2996SOL    HW1 9003   4.617   3.278   2.744
 2996SOL    HW2 9004   4.456   3.266   2.715
 2997SOL     OW 9005   4.646   2.365   2.761
 2997SOL    HW1 9006   4.621   2.356   2.665
 2997SOL    HW2 9007   4.694   2.283   2.792
 2998SOL     OW 9008   4.263   1.926   2.374
 2998SOL    HW1 9009   4.182   1.927   2.432
 2998SOL    HW2 9010   4.266   2.009   2.319
 2999SOL     OW 9011   4.021   1.897   2.033
 2999SOL    HW1 9012   4.070   1.981   2.012
 2999SOL    HW2 9013   4.083   1.832   2.078
 3000SOL     OW 9014   4.183   3.014   2.603
 3000SOL    HW1 9015   4.112   2.987   2.668
 3000SOL    HW2 9016   4.157   2.986   2.510
 3001SOL     OW 9017   3.802   2.418   3.248
 3001SOL    HW1 9018   3.894   2.417   3.207
 3001SOL    HW2 9019   3.796   2.492   3.315
 3002SOL     OW 9020   4.285   2.084   3.009
 3002SOL    HW1 9021   4.323   2.000   3.046
 3002SOL    HW2 9022   4.197   2.103   3.053
 3003SOL     OW 9023   4.212   3.247   2.036
 3003SOL    HW1 9024   4.125   3.232   2.083
 3003SOL    HW2 9025   4.195   3.273   1.941
 3004SOL     OW 9026   4.251   2.118   2.190
 3004SOL    HW1 9027   4.278   2.059   2.115
 3004SOL    HW2 9028   4.251   2.213   2.159
 3005SOL     OW 9029   4.639   1.951   3.264
 3005SOL    HW1 9030   4.664   1.931   3.169
 3005SOL    HW2 9031   4.711   2.007   3.306
 3006SOL     OW 9032   4.429   2.912   2.230
 3006SOL    HW1 9033   4.415   2.919   2.329
 3006SOL    HW2 9034   4.513   2.861   2.212
 3007SOL     OW 9035   4.134   2.675   3.113
 3007SOL    HW1 9036   4.220   2.687   3.163
 3007SOL    HW2 9037   4.092   2.588   3.140
 3008SOL     OW 9038   3.788   3.426   3.193
 3008SOL    HW1 9039   3.742   3.508   3.159
 3008SOL    HW2 9040   3.886   3.445   3.202
 3009SOL     OW 9041   4.091   2.962   2.363
 3009SOL    HW1 9042   4.084   3.045   2.307
 3009SOL    HW2 9043   4.095   2.882   2.303
 3010SOL     OW 9044   4.290   2.399   2.727
 3010SOL    HW1 9045   4.302   2.465   2.653
 3010SOL    HW2 9046   4.336   2.433   2.810
 3011SOL     OW 9047   4.078   3.372   3.191
 3011SOL    HW1 9048   4.057   3.328   3.104
 3011SOL    HW2 9049   4.175   3.398   3.194
 3012SOL     OW 9050   4.126   2.613   3.460
 3012SOL    HW1 9051   4.194   2.668   3.413
 3012SOL    HW2 9052   4.166   2.525   3.487
 3013SOL     OW 9053   4.228   1.912   3.602
 3013SOL    HW1 9054   4.186   1.855   3.532
 3013SOL    HW2 9055   4.162   1.981   3.634
 3014SOL     OW 9056   4.297   2.732   2.891
 3014SOL    HW1 9057   4.341   2.821   2.882
 3014SOL    HW2 9058   4.234   2.732   2.968
 3015SOL     OW 9059   4.031   2.075   3.093
 3015SOL    HW1 9060   4.008   2.112   3.183
 3015SOL    HW2 9061   4.001   1.980   3.087
 3016SOL     OW 9062   3.761   3.172   3.144
 3016SOL    HW1 9063   3.814   3.123   3.212
 3016SOL    HW2 9064   3.783   3.270   3.149
 3017SOL     OW 9065   4.456   2.496   2.926
 3017SOL    HW1 9066   4.515   2.470   2.850
 3017SOL    HW2 9067   4.428   2.592   2.915
 3018SOL     OW 9068   4.031   1.925   2.480
 3018SOL    HW1 9069   4.020   2.019   2.513
 3018SOL    HW2 9070   4.026   1.862   2.557
 3019SOL     OW 9071   4.747   2.628   2.828
 3019SOL    HW1 9072   4.762   2.649   2.924
 3019SOL    HW2 9073   4.717   2.533   2.819
 3020SOL     OW 9074   4.704   3.435   3.562
 3020SOL    HW1 9075   4.684   3.479   3.474
 3020SOL    HW2 9076   4.743   3.344   3.546
 3021SOL     OW 9077   4.074   2.760   3.666
 3021SOL    HW1 9078   4.150   2.804   3.714
 3021SOL    HW2 9079   4.109   2.713   3.584
 3022SOL     OW 9080   4.043   2.672   2.811
 3022SOL    HW1 9081   4.136   2.708   2.816
 3022SOL    HW2 9082   4.037   2.587   2.863
 3023SOL     OW 9083   4.063   2.371   2.868
 3023SOL    HW1 9084   4.011   2.288   2.851
 3023SOL    HW2 9085   4.140   2.376   2.804
 3024SOL     OW 9086   3.732   3.188   2.062
 3024SOL    HW1 9087   3.639   3.209   2.031
 3024SOL    HW2 9088   3.742   3.089   2.075
 3025SOL     OW 9089   3.812   3.663   2.789
 3025SOL    HW1 9090   3.770   3.577   2.762
 3025SOL    HW2 9091   3.906   3.666   2.755
 3026SOL     OW 9092   4.228   3.430   2.772
 3026SOL    HW1 9093   4.294   3.504   2.781
 3026SOL    HW2 9094   4.272   3.351   2.730
 3027SOL     OW 9095   3.764   2.406   2.976
 3027SOL    HW1 9096   3.849   2.373   2.935
 3027SOL    HW2 9097   3.777   2.421   3.074
 3028SOL     OW 9098   3.913   2.382   3.584
 3028SOL    HW1 9099   3.972   2.342   3.514
 3028SOL    HW2 9100   3.855   2.453   3.543
 3029SOL     OW 9101   4.539   2.434   2.187
 3029SOL    HW1 9102   4.546   2.345   2.141
 3029SOL    HW2 9103   4.445   2.468   2.179
 3030SOL     OW 9104   3.976   3.426   3.606
 3030SOL    HW1 9105   3.946   3.483   3.682
 3030SOL    HW2 9106   3.969   3.329   3.632
 3031SOL     OW 9107   4.395   2.326   3.131
 3031SOL    HW1 9108   4.361   2.237   3.101
 3031SOL    HW2 9109   4.421   2.380   3.051
 3032SOL     OW 9110   4.197   2.362   2.053
 3032SOL    HW1 9111   4.258   2.442   2.057
 3032SOL    HW2 9112   4.102   2.393   2.060
 3033SOL     OW 9113   3.883   2.999   3.328
 3033SOL    HW1 9114   3.905   2.938   3.404
 3033SOL    HW2 9115   3.893   2.950   3.242
 3034SOL     OW 9116   3.807   3.120   2.884
 3034SOL    HW1 9117   3.802   3.119   2.984
 3034SOL    HW2 9118   3.724   3.079   2.846
 3035SOL     OW 9119   4.412   3.524   3.578
 3035SOL    HW1 9120   4.356   3.605   3.587
 3035SOL    HW2 9121   4.464   3.528   3.492
 3036SOL     OW 9122   4.627   1.948   1.995
 3036SOL    HW1 9123   4.678   1.949   1.909
 3036SOL    HW2 9124   4.683   1.906   2.066
 3037SOL     OW 9125   3.854   3.656   3.713
 3037SOL    HW1 9126   3.813   3.582   3.766
 3037SOL    HW2 9127   3.918   3.707   3.771
 3038SOL     OW 9128   4.554   3.135   3.284
 3038SOL    HW1 9129   4.549   3.168   3.379
 3038SOL    HW2 9130   4.468   3.154   3.238
 3039SOL     OW 9131   4.396   3.478   2.016
 3039SOL    HW1 9132   4.405   3.488   1.917
 3039SOL    HW2 9133   4.356   3.389   2.037
 3040SOL     OW 9134   3.987   2.188   2.582
 3040SOL    HW1 9135   3.908   2.239   2.548
 3040SOL    HW2 9136   3.978   2.173   2.680
 3041SOL     OW 9137   4.546   2.864   3.234
 3041SOL    HW1 9138   4.586   2.863   3.142
 3041SOL    HW2 9139   4.556   2.956   3.274
 3042SOL     OW 9140   4.096   3.150   3.352
 3042SOL    HW1 9141   4.083   3.243   3.318
 3042SOL    HW2 9142   4.012   3.098   3.339
 3043SOL     OW 9143   4.314   3.349   2.353
 3043SOL    HW1 9144   4.356   3.291   2.283
 3043SOL    HW2 9145   4.270   3.428   2.309
 3044SOL     OW 9146   3.979   3.210   2.152
 3044SOL    HW1 9147   3.883   3.211   2.125
 3044SOL    HW2 9148   3.991   3.263   2.236
 3045SOL     OW 9149   3.829   2.875   3.588
 3045SOL    HW1 9150   3.752   2.842   3.642
 3045SOL    HW2 9151   3.914   2.845   3.630
 3046SOL     OW 9152   4.396   2.065   3.351
 3046SOL    HW1 9153   4.486   2.049   3.311
 3046SOL    HW2 9154   4.404   2.070   3.450
 3047SOL     OW 9155   3.799   2.207   1.895
 3047SOL    HW1 9156   3.707   2.179   1.866
 3047SOL    HW2 9157   3.830   2.284   1.839
 3048SOL     OW 9158   3.796   2.028   2.180
 3048SOL    HW1 9159   3.779   2.111   2.126
 3048SOL    HW2 9160   3.886   1.991   2.158
 3049SOL     OW 9161   4.337   2.704   3.293
 3049SOL    HW1 9162   4.393   2.785   3.276
 3049SOL    HW2 9163   4.396   2.624   3.296
 3050SOL     OW 9164   4.440   2.427   3.570
 3050SOL    HW1 9165   4.459   2.492   3.644
 3050SOL    HW2 9166   4.500   2.347   3.579
 3051SOL     OW 9167   4.114   3.603   3.422
 3051SOL    HW1 9168   4.023   3.644   3.420
 3051SOL    HW2 9169   4.107   3.509   3.454
 3052SOL     OW 9170   4.318   2.607   2.514
 3052SOL    HW1 9171   4.368   2.692   2.495
 3052SOL    HW2 9172   4.230   2.609   2.466
 3053SOL     OW 9173   4.385   3.652   2.815
 3053SOL    HW1 9174   4.339   3.740   2.802
 3053SOL    HW2 9175   4.484   3.664   2.808
 3054SOL     OW 9176   3.945   3.176   3.706
 3054SOL    HW1 9177   3.880   3.103   3.685
 3054SOL    HW2 9178   3.949   3.190   3.804
 3055SOL     OW 9179   3.803   3.102   2.515
 3055SOL    HW1 9180   3.802   3.055   2.603
 3055SOL    HW2 9181   3.885   3.074   2.464
 3056SOL     OW 9182   4.396   3.253   3.486
 3056SOL    HW1 9183   4.318   3.203   3.524
 3056SOL    HW2 9184   4.393   3.348   3.517
 3057SOL     OW 9185   4.152   2.286   2.382
 3057SOL    HW1 9186   4.182   2.214   2.320
 3057SOL    HW2 9187   4.113   2.246   2.465
 3058SOL     OW 9188   4.041   2.409   3.142
 3058SOL    HW1 9189   4.079   2.350   3.214
 3058SOL    HW2 9190   4.081   2.383   3.054
 3059SOL     OW 9191   4.536   3.448   2.549
 3059SOL    HW1 9192   4.568   3.458   2.455
 3059SOL    HW2 9193   4.457   3.386   2.551
 3060SOL     OW 9194   4.342   3.429   3.146
 3060SOL    HW1 9195   4.337   3.511   3.203
 3060SOL    HW2 9196   4.431   3.426   3.101
 3061SOL     OW 9197   3.763   2.939   2.162
 3061SOL    HW1 9198   3.862   2.928   2.153
 3061SOL    HW2 9199   3.723   2.853   2.194
 3062SOL     OW 9200   3.954   2.490   3.837
 3062SOL    HW1 9201   3.861   2.488   3.874
 3062SOL    HW2 9202   3.955   2.451   3.745
 3063SOL     OW 9203   3.949   2.137   4.720
 3063SOL    HW1 9204   3.984   2.120   4.812
 3063SOL    HW2 9205   3.861   2.092   4.708
 3064SOL     OW 9206   3.743   2.230   4.371
 3064SOL    HW1 9207   3.661   2.273   4.410
 3064SOL    HW2 9208   3.715   2.157   4.308
 3065SOL     OW 9209   4.492   3.006   4.747
 3065SOL    HW1 9210   4.414   3.023   4.807
 3065SOL    HW2 9211   4.526   3.093   4.711
 3066SOL     OW 9212   4.409   2.874   4.389
 3066SOL    HW1 9213   4.478   2.858   4.459
 3066SOL    HW2 9214   4.336   2.931   4.427
 3067SOL     OW 9215   3.955   3.575   4.207
 3067SOL    HW1 9216   3.989   3.652   4.261
 3067SOL    HW2 9217   3.999   3.575   4.117
 3068SOL     OW 9218   3.954   3.296   4.262
 3068SOL    HW1 9219   3.928   3.392   4.262
 3068SOL    HW2 9220   3.883   3.242   4.307
 3069SOL     OW 9221   3.964   2.953   4.610
 3069SOL    HW1 9222   3.978   2.869   4.662
 3069SOL    HW2 9223   3.909   3.017   4.665
 3070SOL     OW 9224   4.330   2.826   3.847
 3070SOL    HW1 9225   4.337   2.910   3.793
 3070SOL    HW2 9226   4.376   2.839   3.935
 3071SOL     OW 9227   3.846   2.505   4.287
 3071SOL    HW1 9228   3.801   2.417   4.304
 3071SOL    HW2 9229   3.845   2.559   4.371
 3072SOL     OW 9230   3.751   3.458   3.841
 3072SOL    HW1 9231   3.732   3.362   3.862
 3072SOL    HW2 9232   3.718   3.516   3.916
 3073SOL     OW 9233   4.337   3.227   4.450
 3073SOL    HW1 9234   4.288   3.140   4.459
 3073SOL    HW2 9235   4.314   3.270   4.363
 3074SOL     OW 9236   4.533   1.866   4.226
 3074SOL    HW1 9237   4.573   1.957   4.217
 3074SOL    HW2 9238   4.433   1.874   4.232
 3075SOL     OW 9239   4.322   2.591   3.994
 3075SOL    HW1 9240   4.346   2.660   3.926
 3075SOL    HW2 9241   4.244   2.624   4.048
 3076SOL     OW 9242   3.800   2.673   4.513
 3076SOL    HW1 9243   3.899   2.661   4.522
 3076SOL    HW2 9244   3.776   2.768   4.534
 3077SOL     OW 9245   4.589   2.210   3.919
 3077SOL    HW1 9246   4.648   2.273   3.870
 3077SOL    HW2 9247   4.608   2.116   3.890
 3078SOL     OW 9248   4.274   2.058   4.609
 3078SOL    HW1 9249   4.269   2.053   4.709
 3078SOL    HW2 9250   4.276   2.154   4.580
 3079SOL     OW 9251   4.075   3.663   4.577
 3079SOL    HW1 9252   4.125   3.577   4.583
 3079SOL    HW2 9253   4.140   3.740   4.574
 3080SOL     OW 9254   4.045   2.805   3.966
 3080SOL    HW1 9255   4.127   2.844   3.924
 3080SOL    HW2 9256   4.018   2.723   3.917
 3081SOL     OW 9257   4.835   3.638   3.961
 3081SOL    HW1 9258   4.775   3.576   4.011
 3081SOL    HW2 9259   4.866   3.594   3.876
 3082SOL     OW 9260   4.188   3.605   4.047
 3082SOL    HW1 9261   4.221   3.644   4.133
 3082SOL    HW2 9262   4.264   3.598   3.982
 3083SOL     OW 9263   4.106   2.562   4.204
 3083SOL    HW1 9264   4.151   2.472   4.201
 3083SOL    HW2 9265   4.012   2.551   4.237
 3084SOL     OW 9266   4.338   1.984   3.841
 3084SOL    HW1 9267   4.436   1.962   3.848
 3084SOL    HW2 9268   4.307   1.967   3.748
 3085SOL     OW 9269   4.527   3.264   4.648
 3085SOL    HW1 9270   4.617   3.278   4.606
 3085SOL    HW2 9271   4.456   3.266   4.577
 3086SOL     OW 9272   4.263   1.926   4.236
 3086SOL    HW1 9273   4.182   1.927   4.294
 3086SOL    HW2 9274   4.266   2.009   4.181
 3087SOL     OW 9275   4.021   1.897   3.895
 3087SOL    HW1 9276   4.070   1.981   3.874
 3087SOL    HW2 9277   4.083   1.832   3.940
 3088SOL     OW 9278   4.183   3.014   4.465
 3088SOL    HW1 9279   4.112   2.987   4.530
 3088SOL    HW2 9280   4.157   2.986   4.372
 3089SOL     OW 9281   4.212   3.247   3.898
 3089SOL    HW1 9282   4.125   3.232   3.945
 3089SOL    HW2 9283   4.195   3.273   3.803
 3090SOL     OW 9284   4.251   2.118   4.052
 3090SOL    HW1 9285   4.278   2.059   3.977
 3090SOL    HW2 9286   4.251   2.213   4.021
 3091SOL     OW 9287   4.429   2.912   4.092
 3091SOL    HW1 9288   4.415   2.919   4.191
 3091SOL    HW2 9289   4.513   2.861   4.074
 3092SOL     OW 9290   4.091   2.962   4.225
 3092SOL    HW1 9291   4.084   3.045   4.169
 3092SOL    HW2 9292   4.095   2.882   4.165
 3093SOL     OW 9293   4.290   2.399   4.589
 3093SOL    HW1 9294   4.302   2.465   4.515
 3093SOL    HW2 9295   4.336   2.433   4.672
 3094SOL     OW 9296   4.031   1.925   4.342
 3094SOL    HW1 9297   4.020   2.019   4.375
 3094SOL    HW2 9298   4.026   1.862   4.419
 3095SOL     OW 9299   4.747   2.628   4.690
 3095SOL    HW1 9300   4.762   2.649   4.786
 3095SOL    HW2 9301   4.717   2.533   4.681
 3096SOL     OW 9302   3.732   3.188   3.924
 3096SOL    HW1 9303   3.639   3.209   3.893
 3096SOL    HW2 9304   3.742   3.089   3.937
 3097SOL     OW 9305   3.812   3.663   4.651
 3097SOL    HW1 9306   3.770   3.577   4.624
 3097SOL    HW2 9307   3.906   3.666   4.617
 3098SOL     OW 9308   4.539   2.434   4.049
 3098SOL    HW1 9309   4.546   2.345   4.003
 3098SOL    HW2 9310   4.445   2.468   4.041
 3099SOL     OW 9311   4.197   2.362   3.915
 3099SOL    HW1 9312   4.258   2.442   3.919
 3099SOL    HW2 9313   4.102   2.393   3.922
 3100SOL     OW 9314   4.627   1.948   3.857
 3100SOL    HW1 9315   4.678   1.949   3.771
 3100SOL    HW2 9316   4.683   1.906   3.928
 3101SOL     OW 9317   4.396   3.478   3.878
 3101SOL    HW1 9318   4.405   3.488   3.779
 3101SOL    HW2 9319   4.356   3.389   3.899
 3102SOL     OW 9320   3.987   2.188   4.444
 3102SOL    HW1 9321   3.908   2.239   4.410
 3102SOL    HW2 9322   3.978   2.173   4.542
 3103SOL     OW 9323   4.314   3.349   4.215
 3103SOL    HW1 9324   4.356   3.291   4.145
 3103SOL    HW2 9325   4.270   3.428   4.171
 3104SOL     OW 9326   3.979   3.210   4.014
 3104SOL    HW1 9327   3.883   3.211   3.987
 3104SOL    HW2 9328   3.991   3.263   4.098
 3105SOL     OW 9329   3.799   2.207   3.757
 3105SOL    HW1 9330   3.707   2.179   3.728
 3105SOL    HW2 9331   3.830   2.284   3.701
 3106SOL     OW 9332   3.796   2.028   4.042
 3106SOL    HW1 9333   3.779   2.111   3.988
 3106SOL    HW2 9334   3.886   1.991   4.020
 3107SOL     OW 9335   4.318   2.607   4.376
 3107SOL    HW1 9336   4.368   2.692   4.357
 3107SOL    HW2 9337   4.230   2.609   4.328
 3108SOL     OW 9338   4.385   3.652   4.677
 3108SOL    HW1 9339   4.339   3.740   4.664
 3108SOL    HW2 9340   4.484   3.664   4.670
 3109SOL     OW 9341   3.803   3.102   4.377
 3109SOL    HW1 9342   3.802   3.055   4.465
 3109SOL    HW2 9343   3.885   3.074   4.326
 3110SOL     OW 9344   4.152   2.286   4.244
 3110SOL    HW1 9345   4.182   2.214   4.182
 3110SOL    HW2 9346   4.113   2.246   4.327
 3111SOL     OW 9347   4.536   3.448   4.411
 3111SOL    HW1 9348   4.568   3.458   4.317
 3111SOL    HW2 9349   4.457   3.386   4.413
 3112SOL     OW 9350   3.763   2.939   4.024
 3112SOL    HW1 9351   3.862   2.928   4.015
 3112SOL    HW2 9352   3.723   2.853   4.056
 3113SOL     OW 9353   3.954   4.352   0.113
 3113SOL    HW1 9354   3.861   4.350   0.150
 3113SOL    HW2 9355   3.955   4.313   0.021
 3114SOL     OW 9356   3.949   3.999   0.996
 3114SOL    HW1 9357   3.984   3.982   1.088
 3114SOL    HW2 9358   3.861   3.954   0.984
 3115SOL     OW 9359   3.743   4.092   0.647
 3115SOL    HW1 9360   3.661   4.135   0.686
 3115SOL    HW2 9361   3.715   4.019   0.584
 3116SOL     OW 9362   4.574   4.522   1.823
 3116SOL    HW1 9363   4.570   4.598   1.888
 3116SOL    HW2 9364   4.596   4.558   1.732
 3117SOL     OW 9365   4.409   4.736   0.665
 3117SOL    HW1 9366   4.478   4.720   0.735
 3117SOL    HW2 9367   4.336   4.793   0.703
 3118SOL     OW 9368   4.162   4.116   1.499
 3118SOL    HW1 9369   4.244   4.060   1.508
 3118SOL    HW2 9370   4.081   4.058   1.503
 3119SOL     OW 9371   3.846   4.367   0.563
 3119SOL    HW1 9372   3.801   4.279   0.580
 3119SOL    HW2 9373   3.845   4.421   0.647
 3120SOL     OW 9374   3.837   4.461   1.597
 3120SOL    HW1 9375   3.925   4.448   1.642
 3120SOL    HW2 9376   3.824   4.558   1.575
 3121SOL     OW 9377   4.533   3.728   0.502
 3121SOL    HW1 9378   4.573   3.819   0.493
 3121SOL    HW2 9379   4.433   3.736   0.508
 3122SOL     OW 9380   4.041   3.975   1.801
 3122SOL    HW1 9381   4.112   4.046   1.807
 3122SOL    HW2 9382   3.953   4.014   1.829
 3123SOL     OW 9383   4.322   4.453   0.270
 3123SOL    HW1 9384   4.346   4.522   0.202
 3123SOL    HW2 9385   4.244   4.486   0.324
 3124SOL     OW 9386   4.531   4.329   1.465
 3124SOL    HW1 9387   4.484   4.326   1.554
 3124SOL    HW2 9388   4.480   4.274   1.399
 3125SOL     OW 9389   3.800   4.535   0.789
 3125SOL    HW1 9390   3.899   4.523   0.798
 3125SOL    HW2 9391   3.776   4.630   0.810
 3126SOL     OW 9392   4.589   4.072   0.195
 3126SOL    HW1 9393   4.648   4.135   0.146
 3126SOL    HW2 9394   4.608   3.978   0.166
 3127SOL     OW 9395   4.274   3.920   0.885
 3127SOL    HW1 9396   4.269   3.915   0.985
 3127SOL    HW2 9397   4.276   4.016   0.856
 3128SOL     OW 9398   3.926   4.009   1.498
 3128SOL    HW1 9399   3.846   4.069   1.485
 3128SOL    HW2 9400   3.916   3.960   1.584
 3129SOL     OW 9401   4.106   4.424   0.480
 3129SOL    HW1 9402   4.151   4.334   0.477
 3129SOL    HW2 9403   4.012   4.413   0.513
 3130SOL     OW 9404   4.505   3.988   1.749
 3130SOL    HW1 9405   4.572   3.927   1.792
 3130SOL    HW2 9406   4.432   4.007   1.814
 3131SOL     OW 9407   4.646   4.227   0.899
 3131SOL    HW1 9408   4.621   4.218   0.803
 3131SOL    HW2 9409   4.694   4.145   0.930
 3132SOL     OW 9410   4.263   3.788   0.512
 3132SOL    HW1 9411   4.182   3.789   0.570
 3132SOL    HW2 9412   4.266   3.871   0.457
 3133SOL     OW 9413   4.021   3.759   0.171
 3133SOL    HW1 9414   4.070   3.843   0.150
 3133SOL    HW2 9415   4.083   3.694   0.216
 3134SOL     OW 9416   3.802   4.280   1.386
 3134SOL    HW1 9417   3.894   4.279   1.345
 3134SOL    HW2 9418   3.796   4.354   1.453
 3135SOL     OW 9419   4.285   3.946   1.147
 3135SOL    HW1 9420   4.323   3.862   1.184
 3135SOL    HW2 9421   4.197   3.965   1.191
 3136SOL     OW 9422   4.251   3.980   0.328
 3136SOL    HW1 9423   4.278   3.921   0.253
 3136SOL    HW2 9424   4.251   4.075   0.297
 3137SOL     OW 9425   4.639   3.813   1.402
 3137SOL    HW1 9426   4.664   3.793   1.307
 3137SOL    HW2 9427   4.711   3.869   1.444
 3138SOL     OW 9428   4.134   4.537   1.251
 3138SOL    HW1 9429   4.220   4.549   1.301
 3138SOL    HW2 9430   4.092   4.450   1.278
 3139SOL     OW 9431   4.290   4.261   0.865
 3139SOL    HW1 9432   4.302   4.327   0.791
 3139SOL    HW2 9433   4.336   4.295   0.948
 3140SOL     OW 9434   4.126   4.475   1.598
 3140SOL    HW1 9435   4.194   4.530   1.551
 3140SOL    HW2 9436   4.166   4.387   1.625
 3141SOL     OW 9437   4.228   3.774   1.740
 3141SOL    HW1 9438   4.186   3.717   1.670
 3141SOL    HW2 9439   4.162   3.843   1.772
 3142SOL     OW 9440   4.297   4.594   1.029
 3142SOL    HW1 9441   4.341   4.683   1.020
 3142SOL    HW2 9442   4.234   4.594   1.106
 3143SOL     OW 9443   4.031   3.937   1.231
 3143SOL    HW1 9444   4.008   3.974   1.321
 3143SOL    HW2 9445   4.001   3.842   1.225
 3144SOL     OW 9446   4.456   4.358   1.064
 3144SOL    HW1 9447   4.515   4.332   0.988
 3144SOL    HW2 9448   4.428   4.454   1.053
 3145SOL     OW 9449   4.031   3.787   0.618
 3145SOL    HW1 9450   4.020   3.881   0.651
 3145SOL    HW2 9451   4.026   3.724   0.695
 3146SOL     OW 9452   4.747   4.490   0.966
 3146SOL    HW1 9453   4.762   4.511   1.062
 3146SOL    HW2 9454   4.717   4.395   0.957
 3147SOL     OW 9455   4.043   4.534   0.949
 3147SOL    HW1 9456   4.136   4.570   0.954
 3147SOL    HW2 9457   4.037   4.449   1.001
 3148SOL     OW 9458   4.063   4.233   1.006
 3148SOL    HW1 9459   4.011   4.150   0.989
 3148SOL    HW2 9460   4.140   4.238   0.942
 3149SOL     OW 9461   4.726   4.520   1.238
 3149SOL    HW1 9462   4.767   4.488   1.324
 3149SOL    HW2 9463   4.630   4.493   1.235
 3150SOL     OW 9464   3.764   4.268   1.114
 3150SOL    HW1 9465   3.849   4.235   1.073
 3150SOL    HW2 9466   3.777   4.283   1.212
 3151SOL     OW 9467   3.913   4.244   1.722
 3151SOL    HW1 9468   3.972   4.204   1.652
 3151SOL    HW2 9469   3.855   4.315   1.681
 3152SOL     OW 9470   4.539   4.296   0.325
 3152SOL    HW1 9471   4.546   4.207   0.279
 3152SOL    HW2 9472   4.445   4.330   0.317
 3153SOL     OW 9473   4.395   4.188   1.269
 3153SOL    HW1 9474   4.361   4.099   1.239
 3153SOL    HW2 9475   4.421   4.242   1.189
 3154SOL     OW 9476   4.197   4.224   0.191
 3154SOL    HW1 9477   4.258   4.304   0.195
 3154SOL    HW2 9478   4.102   4.255   0.198
 3155SOL     OW 9479   4.627   3.810   0.133
 3155SOL    HW1 9480   4.678   3.811   0.047
 3155SOL    HW2 9481   4.683   3.768   0.204
 3156SOL     OW 9482   3.987   4.050   0.720
 3156SOL    HW1 9483   3.908   4.101   0.686
 3156SOL    HW2 9484   3.978   4.035   0.818
 3157SOL     OW 9485   3.829   4.737   1.726
 3157SOL    HW1 9486   3.752   4.704   1.780
 3157SOL    HW2 9487   3.914   4.707   1.768
 3158SOL     OW 9488   4.396   3.927   1.489
 3158SOL    HW1 9489   4.486   3.911   1.449
 3158SOL    HW2 9490   4.404   3.932   1.588
 3159SOL     OW 9491   3.796   3.890   0.318
 3159SOL    HW1 9492   3.779   3.973   0.264
 3159SOL    HW2 9493   3.886   3.853   0.296
 3160SOL     OW 9494   4.337   4.566   1.431
 3160SOL    HW1 9495   4.393   4.647   1.414
 3160SOL    HW2 9496   4.396   4.486   1.434
 3161SOL     OW 9497   4.440   4.289   1.708
 3161SOL    HW1 9498   4.459   4.354   1.782
 3161SOL    HW2 9499   4.500   4.209   1.717
 3162SOL     OW 9500   4.318   4.469   0.652
 3162SOL    HW1 9501   4.368   4.554   0.633
 3162SOL    HW2 9502   4.230   4.471   0.604
 3163SOL     OW 9503   4.152   4.148   0.520
 3163SOL    HW1 9504   4.182   4.076   0.458
 3163SOL    HW2 9505   4.113   4.108   0.603
 3164SOL     OW 9506   4.041   4.271   1.280
 3164SOL    HW1 9507   4.079   4.212   1.352
 3164SOL    HW2 9508   4.081   4.245   1.192
 3165SOL     OW 9509   3.954   4.352   1.975
 3165SOL    HW1 9510   3.861   4.350   2.012
 3165SOL    HW2 9511   3.955   4.313   1.883
 3166SOL     OW 9512   3.949   3.999   2.858
 3166SOL    HW1 9513   3.984   3.982   2.950
 3166SOL    HW2 9514   3.861   3.954   2.846
 3167SOL     OW 9515   3.743   4.092   2.509
 3167SOL    HW1 9516   3.661   4.135   2.548
 3167SOL    HW2 9517   3.715   4.019   2.446
 3168SOL     OW 9518   4.574   4.522   3.685
 3168SOL    HW1 9519   4.570   4.598   3.750
 3168SOL    HW2 9520   4.596   4.558   3.594
 3169SOL     OW 9521   4.409   4.736   2.527
 3169SOL    HW1 9522   4.478   4.720   2.597
 3169SOL    HW2 9523   4.336   4.793   2.565
 3170SOL     OW 9524   4.162   4.116   3.361
 3170SOL    HW1 9525   4.244   4.060   3.370
 3170SOL    HW2 9526   4.081   4.058   3.365
 3171SOL     OW 9527   3.846   4.367   2.425
 3171SOL    HW1 9528   3.801   4.279   2.442
 3171SOL    HW2 9529   3.845   4.421   2.509
 3172SOL     OW 9530   3.837   4.461   3.459
 3172SOL    HW1 9531   3.925   4.448   3.504
 3172SOL    HW2 9532   3.824   4.558   3.437
 3173SOL     OW 9533   4.533   3.728   2.364
 3173SOL    HW1 9534   4.573   3.819   2.355
 3173SOL    HW2 9535   4.433   3.736   2.370
 3174SOL     OW 9536   4.041   3.975   3.663
 3174SOL    HW1 9537   4.112   4.046   3.669
 3174SOL    HW2 9538   3.953   4.014   3.691
 3175SOL     OW 9539   4.322   4.453   2.132
 3175SOL    HW1 9540   4.346   4.522   2.064
 3175SOL    HW2 9541   4.244   4.486   2.186
 3176SOL     OW 9542   4.531   4.329   3.327
 3176SOL    HW1 9543   4.484   4.326   3.416
 3176SOL    HW2 9544   4.480   4.274   3.261
 3177SOL     OW 9545   3.800   4.535   2.651
 3177SOL    HW1 9546   3.899   4.523   2.660
 3177SOL    HW2 9547   3.776   4.630   2.672
 3178SOL     OW 9548   4.589   4.072   2.057
 3178SOL    HW1 9549   4.648   4.135   2.008
 3178SOL    HW2 9550   4.608   3.978   2.028
 3179SOL     OW 9551   4.274   3.920   2.747
 3179SOL    HW1 9552   4.269   3.915   2.847
 3179SOL    HW2 9553   4.276   4.016   2.718
 3180SOL     OW 9554   3.926   4.009   3.360
 3180SOL    HW1 9555   3.846   4.069   3.347
 3180SOL    HW2 9556   3.916   3.960   3.446
 3181SOL     OW 9557   4.106   4.424   2.342
 3181SOL    HW1 9558   4.151   4.334   2.339
 3181SOL    HW2 9559   4.012   4.413   2.375
 3182SOL     OW 9560   4.338   3.846   1.979
 3182SOL    HW1 9561   4.436   3.824   1.986
 3182SOL    HW2 9562   4.307   3.829   1.886
 3183SOL     OW 9563   4.505   3.988   3.611
 3183SOL    HW1 9564   4.572   3.927   3.654
 3183SOL    HW2 9565   4.432   4.007   3.676
 3184SOL     OW 9566   4.646   4.227   2.761
 3184SOL    HW1 9567   4.621   4.218   2.665
 3184SOL    HW2 9568   4.694   4.145   2.792
 3185SOL     OW 9569   4.263   3.788   2.374
 3185SOL    HW1 9570   4.182   3.789   2.432
 3185SOL    HW2 9571   4.266   3.871   2.319
 3186SOL     OW 9572   4.021   3.759   2.033
 3186SOL    HW1 9573   4.070   3.843   2.012
 3186SOL    HW2 9574   4.083   3.694   2.078
 3187SOL     OW 9575   3.802   4.280   3.248
 3187SOL    HW1 9576   3.894   4.279   3.207
 3187SOL    HW2 9577   3.796   4.354   3.315
 3188SOL     OW 9578   4.285   3.946   3.009
 3188SOL    HW1 9579   4.323   3.862   3.046
 3188SOL    HW2 9580   4.197   3.965   3.053
 3189SOL     OW 9581   4.251   3.980   2.190
 3189SOL    HW1 9582   4.278   3.921   2.115
 3189SOL    HW2 9583   4.251   4.075   2.159
 3190SOL     OW 9584   4.639   3.813   3.264
 3190SOL    HW1 9585   4.664   3.793   3.169
 3190SOL    HW2 9586   4.711   3.869   3.306
 3191SOL     OW 9587   4.134   4.537   3.113
 3191SOL    HW1 9588   4.220   4.549   3.163
 3191SOL    HW2 9589   4.092   4.450   3.140
 3192SOL     OW 9590   4.290   4.261   2.727
 3192SOL    HW1 9591   4.302   4.327   2.653
 3192SOL    HW2 9592   4.336   4.295   2.810
 3193SOL     OW 9593   4.126   4.475   3.460
 3193SOL    HW1 9594   4.194   4.530   3.413
 3193SOL    HW2 9595   4.166   4.387   3.487
 3194SOL     OW 9596   4.228   3.774   3.602
 3194SOL    HW1 9597   4.186   3.717   3.532
 3194SOL    HW2 9598   4.162   3.843   3.634
 3195SOL     OW 9599   4.297   4.594   2.891
 3195SOL    HW1 9600   4.341   4.683   2.882
 3195SOL    HW2 9601   4.234   4.594   2.968
 3196SOL     OW 9602   4.031   3.937   3.093
 3196SOL    HW1 9603   4.008   3.974   3.183
 3196SOL    HW2 9604   4.001   3.842   3.087
 3197SOL     OW 9605   4.456   4.358   2.926
 3197SOL    HW1 9606   4.515   4.332   2.850
 3197SOL    HW2 9607   4.428   4.454   2.915
 3198SOL     OW 9608   4.031   3.787   2.480
 3198SOL    HW1 9609   4.020   3.881   2.513
 3198SOL    HW2 9610   4.026   3.724   2.557
 3199SOL     OW 9611   4.747   4.490   2.828
 3199SOL    HW1 9612   4.762   4.511   2.924
 3199SOL    HW2 9613   4.717   4.395   2.819
 3200SOL     OW 9614   4.043   4.534   2.811
 3200SOL    HW1 9615   4.136   4.570   2.816
 3200SOL    HW2 9616   4.037   4.449   2.863
 3201SOL     OW 9617   4.063   4.233   2.868
 3201SOL    HW1 9618   4.011   4.150   2.851
 3201SOL    HW2 9619   4.140   4.238   2.804
 3202SOL     OW 9620   4.726   4.520   3.100
 3202SOL    HW1 9621   4.767   4.488   3.186
 3202SOL    HW2 9622   4.630   4.493   3.097
 3203SOL     OW 9623   3.764   4.268   2.976
 3203SOL    HW1 9624   3.849   4.235   2.935
 3203SOL    HW2 9625   3.777   4.283   3.074
 3204SOL     OW 9626   3.913   4.244   3.584
 3204SOL    HW1 9627   3.972   4.204   3.514
 3204SOL    HW2 9628   3.855   4.315   3.543
 3205SOL     OW 9629   4.539   4.296   2.187
 3205SOL    HW1 9630   4.546   4.207   2.141
 3205SOL    HW2 9631   4.445   4.330   2.179
 3206SOL     OW 9632   4.395   4.188   3.131
 3206SOL    HW1 9633   4.361   4.099   3.101
 3206SOL    HW2 9634   4.421   4.242   3.051
 3207SOL     OW 9635   4.197   4.224   2.053
 3207SOL    HW1 9636   4.258   4.304   2.057
 3207SOL    HW2 9637   4.102   4.255   2.060
 3208SOL     OW 9638   4.627   3.810   1.995
 3208SOL    HW1 9639   4.678   3.811   1.909
 3208SOL    HW2 9640   4.683   3.768   2.066
 3209SOL     OW 9641   3.987   4.050   2.582
 3209SOL    HW1 9642   3.908   4.101   2.548
 3209SOL    HW2 9643   3.978   4.035   2.680
 3210SOL     OW 9644   4.640   4.634   2.153
 3210SOL    HW1 9645   4.703   4.672   2.085
 3210SOL    HW2 9646   4.680   4.551   2.192
 3211SOL     OW 9647   3.829   4.737   3.588
 3211SOL    HW1 9648   3.752   4.704   3.642
 3211SOL    HW2 9649   3.914   4.707   3.630
 3212SOL     OW 9650   4.396   3.927   3.351
 3212SOL    HW1 9651   4.486   3.911   3.311
 3212SOL    HW2 9652   4.404   3.932   3.450
 3213SOL     OW 9653   3.799   4.069   1.895
 3213SOL    HW1 9654   3.707   4.041   1.866
 3213SOL    HW2 9655   3.830   4.146   1.839
 3214SOL     OW 9656   3.796   3.890   2.180
 3214SOL    HW1 9657   3.779   3.973   2.126
 3214SOL    HW2 9658   3.886   3.853   2.158
 3215SOL     OW 9659   4.337   4.566   3.293
 3215SOL    HW1 9660   4.393   4.647   3.276
 3215SOL    HW2 9661   4.396   4.486   3.296
 3216SOL     OW 9662   4.440   4.289   3.570
 3216SOL    HW1 9663   4.459   4.354   3.644
 3216SOL    HW2 9664   4.500   4.209   3.579
 3217SOL     OW 9665   4.318   4.469   2.514
 3217SOL    HW1 9666   4.368   4.554   2.495
 3217SOL    HW2 9667   4.230   4.471   2.466
 3218SOL     OW 9668   4.152   4.148   2.382
 3218SOL    HW1 9669   4.182   4.076   2.320
 3218SOL    HW2 9670   4.113   4.108   2.465
 3219SOL     OW 9671   4.041   4.271   3.142
 3219SOL    HW1 9672   4.079   4.212   3.214
 3219SOL    HW2 9673   4.081   4.245   3.054
 3220SOL     OW 9674   3.954   4.352   3.837
 3220SOL    HW1 9675   3.861   4.350   3.874
 3220SOL    HW2 9676   3.955   4.313   3.745
 3221SOL     OW 9677   3.949   3.999   4.720
 3221SOL    HW1 9678   3.984   3.982   4.812
 3221SOL    HW2 9679   3.861   3.954   4.708
 3222SOL     OW 9680   3.743   4.092   4.371
 3222SOL    HW1 9681   3.661   4.135   4.410
 3222SOL    HW2 9682   3.715   4.019   4.308
 3223SOL     OW 9683   4.409   4.736   4.389
 3223SOL    HW1 9684   4.478   4.720   4.459
 3223SOL    HW2 9685   4.336   4.793   4.427
 3224SOL     OW 9686   3.846   4.367   4.287
 3224SOL    HW1 9687   3.801   4.279   4.304
 3224SOL    HW2 9688   3.845   4.421   4.371
 3225SOL     OW 9689   4.533   3.728   4.226
 3225SOL    HW1 9690   4.573   3.819   4.217
 3225SOL    HW2 9691   4.433   3.736   4.232
 3226SOL     OW 9692   4.322   4.453   3.994
 3226SOL    HW1 9693   4.346   4.522   3.926
 3226SOL    HW2 9694   4.244   4.486   4.048
 3227SOL     OW 9695   3.800   4.535   4.513
 3227SOL    HW1 9696   3.899   4.523   4.522
 3227SOL    HW2 9697   3.776   4.630   4.534
 3228SOL     OW 9698   4.589   4.072   3.919
 3228SOL    HW1 9699   4.648   4.135   3.870
 3228SOL    HW2 9700   4.608   3.978   3.890
 3229SOL     OW 9701   4.274   3.920   4.609
 3229SOL    HW1 9702   4.269   3.915   4.709
 3229SOL    HW2 9703   4.276   4.016   4.580
 3230SOL     OW 9704   4.106   4.424   4.204
 3230SOL    HW1 9705   4.151   4.334   4.201
 3230SOL    HW2 9706   4.012   4.413   4.237
 3231SOL     OW 9707   4.338   3.846   3.841
 3231SOL    HW1 9708   4.436   3.824   3.848
 3231SOL    HW2 9709   4.307   3.829   3.748
 3232SOL     OW 9710   4.263   3.788   4.236
 3232SOL    HW1 9711   4.182   3.789   4.294
 3232SOL    HW2 9712   4.266   3.871   4.181
 3233SOL     OW 9713   4.021   3.759   3.895
 3233SOL    HW1 9714   4.070   3.843   3.874
 3233SOL    HW2 9715   4.083   3.694   3.940
 3234SOL     OW 9716   4.183   4.876   4.465
 3234SOL    HW1 9717   4.112   4.849   4.530
 3234SOL    HW2 9718   4.157   4.848   4.372
 3235SOL     OW 9719   4.251   3.980   4.052
 3235SOL    HW1 9720   4.278   3.921   3.977
 3235SOL    HW2 9721   4.251   4.075   4.021
 3236SOL     OW 9722   4.290   4.261   4.589
 3236SOL    HW1 9723   4.302   4.327   4.515
 3236SOL    HW2 9724   4.336   4.295   4.672
 3237SOL     OW 9725   4.031   3.787   4.342
 3237SOL    HW1 9726   4.020   3.881   4.375
 3237SOL    HW2 9727   4.026   3.724   4.419
 3238SOL     OW 9728   4.747   4.490   4.690
 3238SOL    HW1 9729   4.762   4.511   4.786
 3238SOL    HW2 9730   4.717   4.395   4.681
 3239SOL     OW 9731   4.539   4.296   4.049
 3239SOL    HW1 9732   4.546   4.207   4.003
 3239SOL    HW2 9733   4.445   4.330   4.041
 3240SOL     OW 9734   4.197   4.224   3.915
 3240SOL    HW1 9735   4.258   4.304   3.919
 3240SOL    HW2 9736   4.102   4.255   3.922
 3241SOL     OW 9737   4.627   3.810   3.857
 3241SOL    HW1 9738   4.678   3.811   3.771
 3241SOL    HW2 9739   4.683   3.768   3.928
 3242SOL     OW 9740   3.987   4.050   4.444
 3242SOL    HW1 9741   3.908   4.101   4.410
 3242SOL    HW2 9742   3.978   4.035   4.542
 3243SOL     OW 9743   4.640   4.634   4.015
 3243SOL    HW1 9744   4.703   4.672   3.947
 3243SOL    HW2 9745   4.680   4.551   4.054
 3244SOL     OW 9746   3.799   4.069   3.757
 3244SOL    HW1 9747   3.707   4.041   3.728
 3244SOL    HW2 9748   3.830   4.146   3.701
 3245SOL     OW 9749   3.796   3.890   4.042
 3245SOL    HW1 9750   3.779   3.973   3.988
 3245SOL    HW2 9751   3.886   3.853   4.020
 3246SOL     OW 9752   4.318   4.469   4.376
 3246SOL    HW1 9753   4.368   4.554   4.357
 3246SOL    HW2 9754   4.230   4.471   4.328
 3247SOL     OW 9755   4.152   4.148   4.244
 3247SOL    HW1 9756   4.182   4.076   4.182
 3247SOL    HW2 9757   4.113   4.108   4.327
   4.65777   4.65777   4.65777
