; mobley_3053621_GMX_OPLS.itp created by acpype (v: 2023.10.27) on Wed May 20 23:44:45 2026

; For OPLS atomtypes manual fine tuning
; AC_at:OPLS_at:OPLScode: Possible_Alternatives (see ffoplsaa.atp and ffoplsaanb.itp)
; ca:CA:opls_145: ['166', '501', '502']
; ha:HA:opls_146: []

[ moleculetype ]
;name            nrexcl
 mobley_3053621   3

[ atoms ]
;   nr  type  resi  res  atom  cgnr     charge      mass       ; qtot   bond_type
     1 opls_145     1   MOL    C1    1    -0.130000     12.01100 ; qtot -0.130  CA  
     2 opls_145     1   MOL    C2    2    -0.130000     12.01100 ; qtot -0.260  CA  
     3 opls_145     1   MOL    C3    3    -0.130000     12.01100 ; qtot -0.390  CA  
     4 opls_145     1   MOL    C4    4    -0.130000     12.01100 ; qtot -0.520  CA  
     5 opls_145     1   MOL    C5    5    -0.130000     12.01100 ; qtot -0.650  CA  
     6 opls_145     1   MOL    C6    6    -0.130000     12.01100 ; qtot -0.780  CA  
     7 opls_146     1   MOL    H7    7     0.130000      1.00800 ; qtot -0.650  HA  
     8 opls_146     1   MOL    H8    8     0.130000      1.00800 ; qtot -0.520  HA  
     9 opls_146     1   MOL    H9    9     0.130000      1.00800 ; qtot -0.390  HA  
    10 opls_146     1   MOL   H10   10     0.130000      1.00800 ; qtot -0.260  HA  
    11 opls_146     1   MOL   H11   11     0.130000      1.00800 ; qtot -0.130  HA  
    12 opls_146     1   MOL   H12   12     0.130000      1.00800 ; qtot  0.000  HA  

[ bonds ]
;   ai     aj funct   r             k
     1      2   1 ;    1.3986e-01    2.9644e+05 ;     C1 - C2         CA - CA    
     1      3   1 ;    1.3986e-01    2.9644e+05 ;     C1 - C3         CA - CA    
     1      7   1 ;    1.0860e-01    3.0183e+05 ;     C1 - H7         CA - HA    
     2      4   1 ;    1.3986e-01    2.9644e+05 ;     C2 - C4         CA - CA    
     2      8   1 ;    1.0860e-01    3.0183e+05 ;     C2 - H8         CA - HA    
     3      5   1 ;    1.3986e-01    2.9644e+05 ;     C3 - C5         CA - CA    
     3      9   1 ;    1.0860e-01    3.0183e+05 ;     C3 - H9         CA - HA    
     4      6   1 ;    1.3986e-01    2.9644e+05 ;     C4 - C6         CA - CA    
     4     10   1 ;    1.0860e-01    3.0183e+05 ;     C4 - H10        CA - HA    
     5      6   1 ;    1.3986e-01    2.9644e+05 ;     C5 - C6         CA - CA    
     5     11   1 ;    1.0860e-01    3.0183e+05 ;     C5 - H11        CA - HA    
     6     12   1 ;    1.0860e-01    3.0183e+05 ;     C6 - H12        CA - HA    

[ pairs ]
;   ai     aj    funct
     1      6      1 ;     C1 - C6    
     1     10      1 ;     C1 - H10   
     1     11      1 ;     C1 - H11   
     2      5      1 ;     C2 - C5    
     2      9      1 ;     C2 - H9    
     2     12      1 ;     C2 - H12   
     3      4      1 ;     C3 - C4    
     3      8      1 ;     C3 - H8    
     3     12      1 ;     C3 - H12   
     4     11      1 ;     C4 - H11   
     5     10      1 ;     C5 - H10   
     6      8      1 ;     C6 - H8    
     6      9      1 ;     C6 - H9    
     7      4      1 ;     H7 - C4    
     7      5      1 ;     H7 - C5    
     7      8      1 ;     H7 - H8    
     7      9      1 ;     H7 - H9    
     8     10      1 ;     H8 - H10   
     9     11      1 ;     H9 - H11   
    10     12      1 ;    H10 - H12   
    11     12      1 ;    H11 - H12   

[ angles ]
;   ai     aj     ak    funct   theta         cth
     1      2      4      1 ;    1.2002e+02    5.3279e+02 ;     C1 - C2   - C4       CA -   CA - CA  
     1      2      8      1 ;    1.1988e+02    3.7572e+02 ;     C1 - C2   - H8       CA -   CA - HA  
     1      3      5      1 ;    1.2002e+02    5.3279e+02 ;     C1 - C3   - C5       CA -   CA - CA  
     1      3      9      1 ;    1.1988e+02    3.7572e+02 ;     C1 - C3   - H9       CA -   CA - HA  
     2      1      3      1 ;    1.2002e+02    5.3279e+02 ;     C2 - C1   - C3       CA -   CA - CA  
     2      1      7      1 ;    1.1988e+02    3.7572e+02 ;     C2 - C1   - H7       CA -   CA - HA  
     2      4      6      1 ;    1.2002e+02    5.3279e+02 ;     C2 - C4   - C6       CA -   CA - CA  
     2      4     10      1 ;    1.1988e+02    3.7572e+02 ;     C2 - C4   - H10      CA -   CA - HA  
     3      1      7      1 ;    1.1988e+02    3.7572e+02 ;     C3 - C1   - H7       CA -   CA - HA  
     3      5      6      1 ;    1.2002e+02    5.3279e+02 ;     C3 - C5   - C6       CA -   CA - CA  
     3      5     11      1 ;    1.1988e+02    3.7572e+02 ;     C3 - C5   - H11      CA -   CA - HA  
     4      2      8      1 ;    1.1988e+02    3.7572e+02 ;     C4 - C2   - H8       CA -   CA - HA  
     4      6      5      1 ;    1.2002e+02    5.3279e+02 ;     C4 - C6   - C5       CA -   CA - CA  
     4      6     12      1 ;    1.1988e+02    3.7572e+02 ;     C4 - C6   - H12      CA -   CA - HA  
     5      3      9      1 ;    1.1988e+02    3.7572e+02 ;     C5 - C3   - H9       CA -   CA - HA  
     5      6     12      1 ;    1.1988e+02    3.7572e+02 ;     C5 - C6   - H12      CA -   CA - HA  
     6      4     10      1 ;    1.1988e+02    3.7572e+02 ;     C6 - C4   - H10      CA -   CA - HA  
     6      5     11      1 ;    1.1988e+02    3.7572e+02 ;     C6 - C5   - H11      CA -   CA - HA  

[ dihedrals ] ; propers
; for gromacs 4.5 or higher, using funct 9
;    i      j      k      l   func   phase     kd      pn
     1      2      4      6      9 ;   180.00  15.16700   2 ;     C1-    C2-    C4-    C6
     1      2      4     10      9 ;   180.00  15.16700   2 ;     C1-    C2-    C4-   H10
     1      3      5      6      9 ;   180.00  15.16700   2 ;     C1-    C3-    C5-    C6
     1      3      5     11      9 ;   180.00  15.16700   2 ;     C1-    C3-    C5-   H11
     2      1      3      5      9 ;   180.00  15.16700   2 ;     C2-    C1-    C3-    C5
     2      1      3      9      9 ;   180.00  15.16700   2 ;     C2-    C1-    C3-    H9
     2      4      6      5      9 ;   180.00  15.16700   2 ;     C2-    C4-    C6-    C5
     2      4      6     12      9 ;   180.00  15.16700   2 ;     C2-    C4-    C6-   H12
     3      1      2      4      9 ;   180.00  15.16700   2 ;     C3-    C1-    C2-    C4
     3      1      2      8      9 ;   180.00  15.16700   2 ;     C3-    C1-    C2-    H8
     3      5      6      4      9 ;   180.00  15.16700   2 ;     C3-    C5-    C6-    C4
     3      5      6     12      9 ;   180.00  15.16700   2 ;     C3-    C5-    C6-   H12
     4      6      5     11      9 ;   180.00  15.16700   2 ;     C4-    C6-    C5-   H11
     5      6      4     10      9 ;   180.00  15.16700   2 ;     C5-    C6-    C4-   H10
     6      4      2      8      9 ;   180.00  15.16700   2 ;     C6-    C4-    C2-    H8
     6      5      3      9      9 ;   180.00  15.16700   2 ;     C6-    C5-    C3-    H9
     7      1      2      4      9 ;   180.00  15.16700   2 ;     H7-    C1-    C2-    C4
     7      1      2      8      9 ;   180.00  15.16700   2 ;     H7-    C1-    C2-    H8
     7      1      3      5      9 ;   180.00  15.16700   2 ;     H7-    C1-    C3-    C5
     7      1      3      9      9 ;   180.00  15.16700   2 ;     H7-    C1-    C3-    H9
     8      2      4     10      9 ;   180.00  15.16700   2 ;     H8-    C2-    C4-   H10
     9      3      5     11      9 ;   180.00  15.16700   2 ;     H9-    C3-    C5-   H11
    10      4      6     12      9 ;   180.00  15.16700   2 ;    H10-    C4-    C6-   H12
    11      5      6     12      9 ;   180.00  15.16700   2 ;    H11-    C5-    C6-   H12

[ dihedrals ] ; impropers
; treated as propers in GROMACS to use correct AMBER analytical function
;    i      j      k      l   func   phase     kd      pn
     1      4      2      8      4 ;   180.00   4.60240   2 ;     C1-    C4-    C2-    H8
     1      5      3      9      4 ;   180.00   4.60240   2 ;     C1-    C5-    C3-    H9
     2      6      4     10      4 ;   180.00   4.60240   2 ;     C2-    C6-    C4-   H10
     3      6      5     11      4 ;   180.00   4.60240   2 ;     C3-    C6-    C5-   H11
     4      5      6     12      4 ;   180.00   4.60240   2 ;     C4-    C5-    C6-   H12
     7      1      3      2      4 ;   180.00   4.60240   2 ;     H7-    C1-    C3-    C2
