AAB
    12
  25.8790000   5.1590000   4.4080000  26.7720000   5.6590000   3.4520000
  25.8730000   5.6880000   5.7040000  27.6580000   6.6900000   3.7930000
  26.7580000   6.7190000   6.0450000  27.6510000   7.2190000   5.0890000
  25.2080000   4.3790000   4.1500000  26.7780000   5.2580000   2.4690000
  25.1960000   5.3100000   6.4280000  28.3350000   7.0680000   3.0690000
  26.7520000   7.1200000   7.0280000  28.3220000   7.9990000   5.3470000
