mobley_3053621_GMX.gro created by acpype (v: 2023.10.27) on Wed May 20 23:44:45 2026
 12
    1  MOL   C1    1   2.588   0.516   0.441
    1  MOL   C2    2   2.677   0.566   0.345
    1  MOL   C3    3   2.587   0.569   0.570
    1  MOL   C4    4   2.766   0.669   0.379
    1  MOL   C5    5   2.676   0.672   0.605
    1  MOL   C6    6   2.765   0.722   0.509
    1  MOL   H7    7   2.521   0.438   0.415
    1  MOL   H8    8   2.678   0.526   0.247
    1  MOL   H9    9   2.520   0.531   0.643
    1  MOL  H10   10   2.834   0.707   0.307
    1  MOL  H11   11   2.675   0.712   0.703
    1  MOL  H12   12   2.832   0.800   0.535
    6.27800     7.24000     9.11800
