mobley_9794857_GMX.gro created by acpype (v: 2023.10.27) on Wed May 20 23:44:36 2026
 18
    1  MOL   C1    1  -0.047  -0.007   0.099
    1  MOL   C2    2   0.163   0.069   0.216
    1  MOL   C3    3   0.120  -0.176   0.181
    1  MOL   C4    4  -0.113  -0.143   0.334
    1  MOL   C5    5   0.056  -0.040   0.207
    1  MOL   O1    6  -0.011  -0.045   0.333
    1  MOL   H1    7  -0.096   0.089   0.120
    1  MOL   H2    8   0.000   0.000   0.000
    1  MOL   H3    9  -0.126  -0.082   0.095
    1  MOL   H4   10   0.234   0.048   0.296
    1  MOL   H5   11   0.118   0.166   0.239
    1  MOL   H6   12   0.219   0.078   0.122
    1  MOL   H7   13   0.045  -0.255   0.179
    1  MOL   H8   14   0.175  -0.177   0.086
    1  MOL   H9   15   0.190  -0.202   0.262
    1  MOL  H10   16  -0.078  -0.232   0.388
    1  MOL  H11   17  -0.139  -0.170   0.231
    1  MOL  H12   18  -0.201  -0.103   0.384
    8.69400     8.42800     7.75400
