%VERSION  VERSION_STAMP = V0001.000  DATE = 05/20/26  23:44:41                  
%FLAG TITLE                                                                     
%FORMAT(20a4)                                                                   
methyl_tert_butyl_ether                                                         
%FLAG POINTERS                                                                  
%FORMAT(10I8)                                                                   
      18       4      12       5      24       7      39       9       0       0
      85       1       5       7       9       4       7       7       4       0
       0       0       0       0       0       0       0       0      18       0
       0
%FLAG ATOM_NAME                                                                 
%FORMAT(20a4)                                                                   
C1  C2  C3  C4  C5  O1  H1  H2  H3  H4  H5  H6  H7  H8  H9  H10 H11 H12 
%FLAG CHARGE                                                                    
%FORMAT(5E16.8)                                                                 
 -1.95160833E+00 -1.95160833E+00 -1.95160833E+00  2.14476471E+00  2.69325594E+00
 -7.68252168E+00  7.82137561E-01  7.82137561E-01  7.82137561E-01  7.82137561E-01
  7.82137561E-01  7.82137561E-01  7.82137561E-01  7.82137561E-01  7.82137561E-01
  5.59424610E-01  5.59424610E-01  5.59424610E-01
%FLAG ATOMIC_NUMBER                                                             
%FORMAT(10I8)                                                                   
       6       6       6       6       6       8       1       1       1       1
       1       1       1       1       1       1       1       1
%FLAG MASS                                                                      
%FORMAT(5E16.8)                                                                 
  1.20100000E+01  1.20100000E+01  1.20100000E+01  1.20100000E+01  1.20100000E+01
  1.60000000E+01  1.00800000E+00  1.00800000E+00  1.00800000E+00  1.00800000E+00
  1.00800000E+00  1.00800000E+00  1.00800000E+00  1.00800000E+00  1.00800000E+00
  1.00800000E+00  1.00800000E+00  1.00800000E+00
%FLAG ATOM_TYPE_INDEX                                                           
%FORMAT(10I8)                                                                   
       1       1       1       1       1       2       3       3       3       3
       3       3       3       3       3       4       4       4
%FLAG NUMBER_EXCLUDED_ATOMS                                                     
%FORMAT(10I8)                                                                   
      14      13      12       5      13      12       2       1       1       2
       1       1       2       1       1       2       1       1
%FLAG NONBONDED_PARM_INDEX                                                      
%FORMAT(10I8)                                                                   
       1       2       4       7       2       3       5       8       4       5
       6       9       7       8       9      10
%FLAG RESIDUE_LABEL                                                             
%FORMAT(20a4)                                                                   
MOL 
%FLAG RESIDUE_POINTER                                                           
%FORMAT(10I8)                                                                   
       1
%FLAG BOND_FORCE_CONSTANT                                                       
%FORMAT(5E16.8)                                                                 
  2.28890000E+02  3.45250000E+02  2.82270000E+02  3.44220000E+02
%FLAG BOND_EQUIL_VALUE                                                          
%FORMAT(5E16.8)                                                                 
  1.53540000E+00  1.09620000E+00  1.42730000E+00  1.09690000E+00
%FLAG ANGLE_FORCE_CONSTANT                                                      
%FORMAT(5E16.8)                                                                 
  5.98700000E+01  7.74400000E+01  8.83300000E+01  4.32700000E+01  5.62000000E+01
  3.58000000E+01  3.56400000E+01
%FLAG ANGLE_EQUIL_VALUE                                                         
%FORMAT(5E16.8)                                                                 
  1.96576518E+00  1.87832415E+00  1.98269488E+00  1.91427794E+00  1.92579712E+00
  1.88024401E+00  1.89455572E+00
%FLAG DIHEDRAL_FORCE_CONSTANT                                                   
%FORMAT(5E16.8)                                                                 
  1.30000000E-01  8.80000000E-01  8.00000000E-02  7.50000000E-01  3.37000000E-01
  2.50000000E-01  0.00000000E+00
%FLAG DIHEDRAL_PERIODICITY                                                      
%FORMAT(5E16.8)                                                                 
  3.00000000E+00  1.00000000E+00  2.00000000E+00  3.00000000E+00  3.00000000E+00
  1.00000000E+00  3.00000000E+00
%FLAG DIHEDRAL_PHASE                                                            
%FORMAT(5E16.8)                                                                 
  0.00000000E+00  3.14159400E+00  0.00000000E+00  0.00000000E+00  0.00000000E+00
  0.00000000E+00  0.00000000E+00
%FLAG SCEE_SCALE_FACTOR                                                         
%FORMAT(5E16.8)                                                                 
  1.20000000E+00  1.20000000E+00  1.20000000E+00  1.20000000E+00  1.20000000E+00
  1.20000000E+00  1.20000000E+00
%FLAG SCNB_SCALE_FACTOR                                                         
%FORMAT(5E16.8)                                                                 
  2.00000000E+00  2.00000000E+00  2.00000000E+00  2.00000000E+00  2.00000000E+00
  2.00000000E+00  2.00000000E+00
%FLAG SOLTY                                                                     
%FORMAT(5E16.8)                                                                 
  0.00000000E+00  0.00000000E+00  0.00000000E+00  0.00000000E+00
%FLAG LENNARD_JONES_ACOEF                                                       
%FORMAT(5E16.8)                                                                 
  1.02073671E+06  5.42502534E+05  2.83662575E+05  1.00235148E+05  5.02224902E+04
  7.94617769E+03  6.97998263E+04  3.44374471E+04  5.22955465E+03  3.39005767E+03
%FLAG LENNARD_JONES_BCOEF                                                       
%FORMAT(5E16.8)                                                                 
  6.63431737E+02  4.38146883E+02  2.87011518E+02  1.37787728E+02  8.83545880E+01
  2.57122925E+01  1.14981426E+02  7.31636661E+01  2.08590256E+01  1.67944276E+01
%FLAG BONDS_INC_HYDROGEN                                                        
%FORMAT(10I8)                                                                   
       0      18       2       0      21       2       0      24       2       3
      27       2       3      30       2       3      33       2       6      36
       2       6      39       2       6      42       2       9      45       4
       9      48       4       9      51       4
%FLAG BONDS_WITHOUT_HYDROGEN                                                    
%FORMAT(10I8)                                                                   
       0      12       1       3      12       1       6      12       1       9
      15       3      12      15       3
%FLAG ANGLES_INC_HYDROGEN                                                       
%FORMAT(10I8)                                                                   
      12       0      18       4      12       0      21       4      12       0
      24       4      12       3      27       4      12       3      30       4
      12       3      33       4      12       6      36       4      12       6
      39       4      12       6      42       4      15       9      45       5
      15       9      48       5      15       9      51       5      18       0
      21       6      18       0      24       6      21       0      24       6
      27       3      30       6      27       3      33       6      30       3
      33       6      36       6      39       6      36       6      42       6
      39       6      42       6      45       9      48       7      45       9
      51       7      48       9      51       7
%FLAG ANGLES_WITHOUT_HYDROGEN                                                   
%FORMAT(10I8)                                                                   
       0      12       3       1       0      12       6       1       0      12
      15       2       3      12       6       1       3      12      15       2
       6      12      15       2       9      15      12       3
%FLAG DIHEDRALS_INC_HYDROGEN                                                    
%FORMAT(10I8)                                                                   
       0      12       3      27       1       0      12       3      30       1
       0      12       3      33       1       0      12       6      36       1
       0      12       6      39       1       0      12       6      42       1
      18       0      12       3       1      21       0      12       3       1
      24       0      12       3       1       3      12       6      36       1
       3      12       6      39       1       3      12       6      42       1
      18       0      12       6       1      21       0      12       6       1
      24       0      12       6       1       6      12       3      27       1
       6      12       3      30       1       6      12       3      33       1
      12      15       9      45       5      12      15       9      48       5
      12      15       9      51       5      18       0      12      15       6
      18       0     -12      15       7      21       0      12      15       6
      21       0     -12      15       7      24       0      12      15       6
      24       0     -12      15       7      15      12       3      27       6
      15      12      -3      27       7      15      12       3      30       6
      15      12      -3      30       7      15      12       3      33       6
      15      12      -3      33       7      15      12       6      36       6
      15      12      -6      36       7      15      12       6      39       6
      15      12      -6      39       7      15      12       6      42       6
      15      12      -6      42       7
%FLAG DIHEDRALS_WITHOUT_HYDROGEN                                                
%FORMAT(10I8)                                                                   
       0      12      15       9       2       0      12     -15       9       3
       0      12     -15       9       4       3      12      15       9       2
       3      12     -15       9       3       3      12     -15       9       4
       6      12      15       9       2       6      12     -15       9       3
       6      12     -15       9       4
%FLAG EXCLUDED_ATOMS_LIST                                                       
%FORMAT(10I8)                                                                   
       2       3       4       5       6       7       8       9      10      11
      12      13      14      15       3       4       5       6       7       8
       9      10      11      12      13      14      15       4       5       6
       7       8       9      10      11      12      13      14      15       5
       6      16      17      18       6       7       8       9      10      11
      12      13      14      15      16      17      18       7       8       9
      10      11      12      13      14      15      16      17      18       8
       9       9       0      11      12      12       0      14      15      15
       0      17      18      18       0
%FLAG HBOND_ACOEF                                                               
%FORMAT(5E16.8)                                                                 

%FLAG HBOND_BCOEF                                                               
%FORMAT(5E16.8)                                                                 

%FLAG HBCUT                                                                     
%FORMAT(5E16.8)                                                                 

%FLAG AMBER_ATOM_TYPE                                                           
%FORMAT(20a4)                                                                   
c3  c3  c3  c3  c3  os  hc  hc  hc  hc  hc  hc  hc  hc  hc  h1  h1  h1  
%FLAG TREE_CHAIN_CLASSIFICATION                                                 
%FORMAT(20a4)                                                                   
BLA BLA BLA BLA BLA BLA BLA BLA BLA BLA BLA BLA BLA BLA BLA BLA BLA BLA 
%FLAG JOIN_ARRAY                                                                
%FORMAT(10I8)                                                                   
       0       0       0       0       0       0       0       0       0       0
       0       0       0       0       0       0       0       0
%FLAG IROTAT                                                                    
%FORMAT(10I8)                                                                   
       0       0       0       0       0       0       0       0       0       0
       0       0       0       0       0       0       0       0
%FLAG RADIUS_SET                                                                
%FORMAT(1a80)                                                                   
modified Bondi radii (mbondi)                                                   
%FLAG RADII                                                                     
%FORMAT(5E16.8)                                                                 
  1.70000000E+00  1.70000000E+00  1.70000000E+00  1.70000000E+00  1.70000000E+00
  1.50000000E+00  1.30000000E+00  1.30000000E+00  1.30000000E+00  1.30000000E+00
  1.30000000E+00  1.30000000E+00  1.30000000E+00  1.30000000E+00  1.30000000E+00
  1.30000000E+00  1.30000000E+00  1.30000000E+00
%FLAG SCREEN                                                                    
%FORMAT(5E16.8)                                                                 
  7.20000000E-01  7.20000000E-01  7.20000000E-01  7.20000000E-01  7.20000000E-01
  8.50000000E-01  8.50000000E-01  8.50000000E-01  8.50000000E-01  8.50000000E-01
  8.50000000E-01  8.50000000E-01  8.50000000E-01  8.50000000E-01  8.50000000E-01
  8.50000000E-01  8.50000000E-01  8.50000000E-01
%FLAG IPOL                                                                      
%FORMAT(1I8)                                                                    
       0
