mobley_1905088_GMX.gro created by acpype (v: 2023.10.27) on Thu May 21 00:04:39 2026
 9687
    1MOL     C1    1   2.215   2.502   2.317
    1MOL     C2    2   2.354   2.503   2.317
    1MOL     C3    3   2.147   2.381   2.317
    1MOL     C4    4   2.424   2.383   2.318
    1MOL     C5    5   2.217   2.262   2.318
    1MOL     C6    6   2.356   2.262   2.318
    1MOL     C7    7   2.432   2.133   2.312
    1MOL    BR1    8   2.473   2.062   2.491
    1MOL     H1    9   2.160   2.595   2.316
    1MOL     H2   10   2.407   2.596   2.317
    1MOL     H3   11   2.039   2.380   2.317
    1MOL     H4   12   2.531   2.385   2.318
    1MOL     H5   13   2.164   2.168   2.318
    1MOL     H6   14   2.376   2.055   2.264
    1MOL     H7   15   2.527   2.144   2.264
    2SOL     OW   16   0.230   0.628   0.113
    2SOL    HW1   17   0.137   0.626   0.150
    2SOL    HW2   18   0.231   0.589   0.021
    3SOL     OW   19   0.225   0.275   0.996
    3SOL    HW1   20   0.260   0.258   1.088
    3SOL    HW2   21   0.137   0.230   0.984
    4SOL     OW   22   0.019   0.368   0.647
    4SOL    HW1   23  -0.063   0.411   0.686
    4SOL    HW2   24  -0.009   0.295   0.584
    5SOL     OW   25   0.569   1.275   1.165
    5SOL    HW1   26   0.476   1.268   1.128
    5SOL    HW2   27   0.580   1.364   1.209
    6SOL     OW   28   1.555   1.511   0.703
    6SOL    HW1   29   1.498   1.495   0.784
    6SOL    HW2   30   1.496   1.521   0.623
    7SOL     OW   31   1.135   0.703   0.717
    7SOL    HW1   32   1.192   0.781   0.692
    7SOL    HW2   33   1.075   0.729   0.793
    8SOL     OW   34   1.755   0.607   0.231
    8SOL    HW1   35   1.743   0.594   0.132
    8SOL    HW2   36   1.725   0.526   0.280
    9SOL     OW   37   0.768   1.144   1.023
    9SOL    HW1   38   0.690   1.161   1.083
    9SOL    HW2   39   0.802   1.231   0.987
   10SOL     OW   40   0.850   0.798   1.823
   10SOL    HW1   41   0.846   0.874   1.888
   10SOL    HW2   42   0.872   0.834   1.732
   11SOL     OW   43   0.685   1.012   0.665
   11SOL    HW1   44   0.754   0.996   0.735
   11SOL    HW2   45   0.612   1.069   0.703
   12SOL     OW   46   0.686   1.161   1.803
   12SOL    HW1   47   0.746   1.240   1.817
   12SOL    HW2   48   0.600   1.192   1.762
   13SOL     OW   49   0.335   1.435   1.061
   13SOL    HW1   50   0.257   1.404   1.008
   13SOL    HW2   51   0.393   1.493   1.004
   14SOL     OW   52   1.460   1.505   1.339
   14SOL    HW1   53   1.484   1.599   1.365
   14SOL    HW2   54   1.444   1.451   1.421
   15SOL     OW   55   0.438   0.392   1.499
   15SOL    HW1   56   0.520   0.336   1.508
   15SOL    HW2   57   0.357   0.334   1.503
   16SOL     OW   58   1.603   0.447   0.737
   16SOL    HW1   59   1.529   0.493   0.687
   16SOL    HW2   60   1.654   0.515   0.790
   17SOL     OW   61   0.231   1.713   0.483
   17SOL    HW1   62   0.265   1.790   0.537
   17SOL    HW2   63   0.275   1.713   0.393
   18SOL     OW   64   1.127   1.341   1.690
   18SOL    HW1   65   1.174   1.341   1.778
   18SOL    HW2   66   1.079   1.254   1.679
   19SOL     OW   67   0.230   1.434   0.538
   19SOL    HW1   68   0.204   1.530   0.538
   19SOL    HW2   69   0.159   1.380   0.583
   20SOL     OW   70   0.240   1.091   0.886
   20SOL    HW1   71   0.254   1.007   0.938
   20SOL    HW2   72   0.185   1.155   0.941
   21SOL     OW   73   0.620   1.786   1.439
   21SOL    HW1   74   0.528   1.769   1.474
   21SOL    HW2   75   0.648   1.878   1.465
   22SOL     OW   76   0.606   0.964   0.123
   22SOL    HW1   77   0.613   1.048   0.069
   22SOL    HW2   78   0.652   0.977   0.211
   23SOL     OW   79   1.594   0.114   1.480
   23SOL    HW1   80   1.576   0.181   1.408
   23SOL    HW2   81   1.591   0.160   1.569
   24SOL     OW   82   0.122   0.643   0.563
   24SOL    HW1   83   0.077   0.555   0.580
   24SOL    HW2   84   0.121   0.697   0.647
   25SOL     OW   85   1.842   1.767   0.359
   25SOL    HW1   86   1.896   1.738   0.439
   25SOL    HW2   87   1.872   1.857   0.330
   26SOL     OW   88   0.027   1.596   0.117
   26SOL    HW1   89   0.008   1.500   0.138
   26SOL    HW2   90  -0.006   1.654   0.192
   27SOL     OW   91   1.689   0.922   0.612
   27SOL    HW1   92   1.784   0.893   0.620
   27SOL    HW2   93   1.681   0.987   0.537
   28SOL     OW   94   1.641   1.108   0.432
   28SOL    HW1   95   1.727   1.110   0.380
   28SOL    HW2   96   1.655   1.155   0.520
   29SOL     OW   97   0.113   0.737   1.597
   29SOL    HW1   98   0.201   0.724   1.642
   29SOL    HW2   99   0.100   0.834   1.575
   30SOL     OW  100   0.613   1.365   0.726
   30SOL    HW1  101   0.564   1.278   0.735
   30SOL    HW2  102   0.590   1.408   0.639
   31SOL     OW  103   1.293   1.228   1.423
   31SOL    HW1  104   1.330   1.155   1.365
   31SOL    HW2  105   1.345   1.233   1.508
   32SOL     OW  106   0.809   0.004   0.502
   32SOL    HW1  107   0.849   0.095   0.493
   32SOL    HW2  108   0.709   0.012   0.508
   33SOL     OW  109   0.197   0.976   1.264
   33SOL    HW1  110   0.286   0.931   1.250
   33SOL    HW2  111   0.124   0.911   1.245
   34SOL     OW  112   1.525   0.999   0.190
   34SOL    HW1  113   1.462   0.923   0.203
   34SOL    HW2  114   1.573   1.017   0.276
   35SOL     OW  115   1.187   1.792   1.616
   35SOL    HW1  116   1.211   1.852   1.540
   35SOL    HW2  117   1.194   1.697   1.586
   36SOL     OW  118   0.317   0.251   1.801
   36SOL    HW1  119   0.388   0.322   1.807
   36SOL    HW2  120   0.229   0.290   1.829
   37SOL     OW  121   1.466   1.417   0.953
   37SOL    HW1  122   1.407   1.423   1.033
   37SOL    HW2  123   1.451   1.329   0.907
   38SOL     OW  124   1.667   1.714   0.572
   38SOL    HW1  125   1.626   1.691   0.484
   38SOL    HW2  126   1.649   1.640   0.637
   39SOL     OW  127   0.598   0.729   0.270
   39SOL    HW1  128   0.622   0.798   0.202
   39SOL    HW2  129   0.520   0.762   0.324
   40SOL     OW  130   1.281   0.345   0.944
   40SOL    HW1  131   1.195   0.295   0.931
   40SOL    HW2  132   1.343   0.291   1.000
   41SOL     OW  133   1.576   1.662   0.307
   41SOL    HW1  134   1.665   1.708   0.310
   41SOL    HW2  135   1.555   1.638   0.212
   42SOL     OW  136   0.807   0.605   1.465
   42SOL    HW1  137   0.760   0.602   1.554
   42SOL    HW2  138   0.756   0.550   1.399
   43SOL     OW  139   1.394   0.469   1.674
   43SOL    HW1  140   1.374   0.512   1.762
   43SOL    HW2  141   1.472   0.407   1.683
   44SOL     OW  142   0.973   0.890   1.572
   44SOL    HW1  143   1.019   0.806   1.543
   44SOL    HW2  144   0.917   0.924   1.497
   45SOL     OW  145   0.991   0.410   1.242
   45SOL    HW1  146   0.914   0.444   1.296
   45SOL    HW2  147   0.957   0.359   1.163
   46SOL     OW  148   1.041   0.701   0.429
   46SOL    HW1  149   1.067   0.697   0.525
   46SOL    HW2  150   0.956   0.650   0.415
   47SOL     OW  151   0.076   0.811   0.789
   47SOL    HW1  152   0.175   0.799   0.798
   47SOL    HW2  153   0.052   0.906   0.810
   48SOL     OW  154   0.130   1.821   1.571
   48SOL    HW1  155   0.120   1.806   1.670
   48SOL    HW2  156   0.044   1.857   1.535
   49SOL     OW  157   0.865   0.348   0.195
   49SOL    HW1  158   0.924   0.411   0.146
   49SOL    HW2  159   0.884   0.254   0.166
   50SOL     OW  160   1.719   0.585   1.831
   50SOL    HW1  161   1.693   0.674   1.795
   50SOL    HW2  162   1.717   0.517   1.758
   51SOL     OW  163   1.362   1.144   0.545
   51SOL    HW1  164   1.445   1.115   0.497
   51SOL    HW2  165   1.313   1.211   0.489
   52SOL     OW  166   0.550   0.196   0.885
   52SOL    HW1  167   0.545   0.191   0.985
   52SOL    HW2  168   0.552   0.292   0.856
   53SOL     OW  169   1.008   1.456   0.477
   53SOL    HW1  170   0.962   1.528   0.425
   53SOL    HW2  171   1.004   1.476   0.575
   54SOL     OW  172   0.351   1.801   0.853
   54SOL    HW1  173   0.401   1.715   0.859
   54SOL    HW2  174   0.416   1.878   0.850
   55SOL     OW  175   1.795   1.066   0.873
   55SOL    HW1  176   1.733   1.051   0.797
   55SOL    HW2  177   1.743   1.077   0.958
   56SOL     OW  178   1.227   1.550   1.506
   56SOL    HW1  179   1.233   1.473   1.570
   56SOL    HW2  180   1.175   1.524   1.426
   57SOL     OW  181   0.321   0.943   0.242
   57SOL    HW1  182   0.403   0.982   0.200
   57SOL    HW2  183   0.294   0.861   0.193
   58SOL     OW  184   1.458   0.735   0.728
   58SOL    HW1  185   1.453   0.670   0.803
   58SOL    HW2  186   1.538   0.794   0.741
   59SOL     OW  187   0.461   1.266   1.727
   59SOL    HW1  188   0.411   1.267   1.641
   59SOL    HW2  189   0.398   1.248   1.803
   60SOL     OW  190   1.111   1.776   0.237
   60SOL    HW1  191   1.051   1.714   0.287
   60SOL    HW2  192   1.142   1.732   0.152
   61SOL     OW  193   0.202   0.285   1.498
   61SOL    HW1  194   0.122   0.345   1.485
   61SOL    HW2  195   0.192   0.236   1.584
   62SOL     OW  196   1.632   1.377   0.081
   62SOL    HW1  197   1.600   1.471   0.071
   62SOL    HW2  198   1.556   1.314   0.069
   63SOL     OW  199   0.464   1.743   0.323
   63SOL    HW1  200   0.497   1.782   0.409
   63SOL    HW2  201   0.540   1.736   0.258
   64SOL     OW  202   1.400   0.107   0.426
   64SOL    HW1  203   1.376   0.070   0.336
   64SOL    HW2  204   1.499   0.123   0.430
   65SOL     OW  205   0.249   1.785   1.241
   65SOL    HW1  206   0.306   1.720   1.291
   65SOL    HW2  207   0.233   1.752   1.148
   66SOL     OW  208   0.940   1.698   0.904
   66SOL    HW1  209   1.020   1.641   0.925
   66SOL    HW2  210   0.891   1.658   0.827
   67SOL     OW  211   0.382   0.700   0.480
   67SOL    HW1  212   0.427   0.610   0.477
   67SOL    HW2  213   0.288   0.689   0.513
   68SOL     OW  214   1.547   0.222   1.729
   68SOL    HW1  215   1.542   0.259   1.821
   68SOL    HW2  216   1.475   0.153   1.717
   69SOL     OW  217   0.614   0.122   0.117
   69SOL    HW1  218   0.712   0.100   0.124
   69SOL    HW2  219   0.583   0.105   0.024
   70SOL     OW  220   0.781   0.264   1.749
   70SOL    HW1  221   0.848   0.203   1.792
   70SOL    HW2  222   0.708   0.283   1.814
   71SOL     OW  223   0.888   1.514   1.195
   71SOL    HW1  224   0.865   1.489   1.101
   71SOL    HW2  225   0.949   1.445   1.234
   72SOL     OW  226   1.351   0.590   1.433
   72SOL    HW1  227   1.379   0.547   1.518
   72SOL    HW2  228   1.376   0.686   1.434
   73SOL     OW  229   0.803   1.402   0.924
   73SOL    HW1  230   0.893   1.416   0.882
   73SOL    HW2  231   0.732   1.404   0.853
   74SOL     OW  232   0.922   0.503   0.899
   74SOL    HW1  233   0.897   0.494   0.803
   74SOL    HW2  234   0.970   0.421   0.930
   75SOL     OW  235   0.539   0.064   0.512
   75SOL    HW1  236   0.458   0.065   0.570
   75SOL    HW2  237   0.542   0.147   0.457
   76SOL     OW  238   1.434   1.188   0.041
   76SOL    HW1  239   1.466   1.112   0.098
   76SOL    HW2  240   1.342   1.215   0.071
   77SOL     OW  241   0.297   0.035   0.171
   77SOL    HW1  242   0.346   0.119   0.150
   77SOL    HW2  243   0.359  -0.030   0.216
   78SOL     OW  244   0.935   0.236   0.480
   78SOL    HW1  245   0.887   0.277   0.402
   78SOL    HW2  246   1.034   0.234   0.461
   79SOL     OW  247   1.076   0.683   1.464
   79SOL    HW1  248   0.996   0.622   1.467
   79SOL    HW2  249   1.157   0.630   1.440
   80SOL     OW  250   1.227   1.570   0.793
   80SOL    HW1  251   1.248   1.644   0.728
   80SOL    HW2  252   1.295   1.570   0.866
   81SOL     OW  253   0.459   1.152   0.741
   81SOL    HW1  254   0.388   1.125   0.806
   81SOL    HW2  255   0.433   1.124   0.648
   82SOL     OW  256   1.271   1.797   0.591
   82SOL    HW1  257   1.315   1.861   0.527
   82SOL    HW2  258   1.221   1.849   0.661
   83SOL     OW  259   1.032   0.549   0.016
   83SOL    HW1  260   0.991   0.631  -0.023
   83SOL    HW2  261   1.096   0.575   0.089
   84SOL     OW  262   0.078   0.556   1.386
   84SOL    HW1  263   0.170   0.555   1.345
   84SOL    HW2  264   0.072   0.630   1.453
   85SOL     OW  265   0.561   0.222   1.147
   85SOL    HW1  266   0.599   0.138   1.184
   85SOL    HW2  267   0.473   0.241   1.191
   86SOL     OW  268   0.866   0.454   0.642
   86SOL    HW1  269   0.834   0.526   0.580
   86SOL    HW2  270   0.890   0.373   0.589
   87SOL     OW  271   1.017   0.039   0.753
   87SOL    HW1  272   0.945   0.044   0.684
   87SOL    HW2  273   0.993  -0.030   0.822
   88SOL     OW  274   1.429   1.173   0.867
   88SOL    HW1  275   1.374   1.089   0.860
   88SOL    HW2  276   1.455   1.202   0.775
   89SOL     OW  277   1.466   0.590   0.992
   89SOL    HW1  278   1.436   0.495   0.999
   89SOL    HW2  279   1.539   0.606   1.058
   90SOL     OW  280   1.857   0.833   0.377
   90SOL    HW1  281   1.899   0.769   0.441
   90SOL    HW2  282   1.819   0.782   0.299
   91SOL     OW  283   0.488   1.385   0.174
   91SOL    HW1  284   0.401   1.370   0.221
   91SOL    HW2  285   0.471   1.411   0.079
   92SOL     OW  286   1.664   1.280   0.657
   92SOL    HW1  287   1.763   1.288   0.671
   92SOL    HW2  288   1.619   1.364   0.688
   93SOL     OW  289   1.390   0.575   0.078
   93SOL    HW1  290   1.336   0.554   0.159
   93SOL    HW2  291   1.481   0.534   0.087
   94SOL     OW  292   0.527   0.256   0.328
   94SOL    HW1  293   0.554   0.197   0.253
   94SOL    HW2  294   0.527   0.351   0.297
   95SOL     OW  295   1.754   1.223   1.588
   95SOL    HW1  296   1.845   1.184   1.575
   95SOL    HW2  297   1.762   1.319   1.612
   96SOL     OW  298   1.064   1.347   1.340
   96SOL    HW1  299   0.984   1.324   1.395
   96SOL    HW2  300   1.147   1.321   1.389
   97SOL     OW  301   1.592   1.629   1.625
   97SOL    HW1  302   1.619   1.663   1.535
   97SOL    HW2  303   1.671   1.591   1.671
   98SOL     OW  304   1.111   1.195   1.100
   98SOL    HW1  305   1.071   1.239   1.181
   98SOL    HW2  306   1.070   1.232   1.017
   99SOL     OW  307   1.638   1.099   1.079
   99SOL    HW1  308   1.643   1.180   1.138
   99SOL    HW2  309   1.552   1.101   1.028
  100SOL     OW  310   0.915   0.089   1.402
  100SOL    HW1  311   0.940   0.069   1.307
  100SOL    HW2  312   0.987   0.145   1.444
  101SOL     OW  313   0.980   1.116   1.719
  101SOL    HW1  314   0.881   1.122   1.729
  101SOL    HW2  315   1.003   1.036   1.663
  102SOL     OW  316   0.705   1.050   0.368
  102SOL    HW1  317   0.691   1.057   0.467
  102SOL    HW2  318   0.789   0.999   0.350
  103SOL     OW  319   0.410   0.813   1.251
  103SOL    HW1  320   0.496   0.825   1.301
  103SOL    HW2  321   0.368   0.726   1.278
  104SOL     OW  322   1.274   0.386   1.262
  104SOL    HW1  323   1.295   0.460   1.326
  104SOL    HW2  324   1.185   0.403   1.219
  105SOL     OW  325   0.064   1.564   1.331
  105SOL    HW1  326   0.018   1.646   1.297
  105SOL    HW2  327   0.162   1.583   1.340
  106SOL     OW  328   0.367   1.100   0.501
  106SOL    HW1  329   0.360   1.183   0.445
  106SOL    HW2  330   0.371   1.020   0.441
  107SOL     OW  331   0.566   0.537   0.865
  107SOL    HW1  332   0.578   0.603   0.791
  107SOL    HW2  333   0.612   0.571   0.948
  108SOL     OW  334   1.252   1.348   0.388
  108SOL    HW1  335   1.302   1.425   0.428
  108SOL    HW2  336   1.157   1.350   0.420
  109SOL     OW  337   1.272   1.445   1.142
  109SOL    HW1  338   1.319   1.458   1.229
  109SOL    HW2  339   1.206   1.371   1.151
  110SOL     OW  340   1.582   0.639   0.472
  110SOL    HW1  341   1.551   0.700   0.545
  110SOL    HW2  342   1.632   0.691   0.403
  111SOL     OW  343   0.354   1.510   1.329
  111SOL    HW1  344   0.333   1.466   1.242
  111SOL    HW2  345   0.451   1.536   1.332
  112SOL     OW  346   0.402   0.751   1.598
  112SOL    HW1  347   0.470   0.806   1.551
  112SOL    HW2  348   0.442   0.663   1.625
  113SOL     OW  349   1.587   0.779   1.670
  113SOL    HW1  350   1.495   0.817   1.665
  113SOL    HW2  351   1.647   0.826   1.605
  114SOL     OW  352   1.013   0.105   1.770
  114SOL    HW1  353   1.019   0.190   1.718
  114SOL    HW2  354   1.045   0.029   1.713
  115SOL     OW  355   0.504   0.050   1.740
  115SOL    HW1  356   0.462  -0.007   1.670
  115SOL    HW2  357   0.438   0.119   1.772
  116SOL     OW  358   0.573   0.870   1.029
  116SOL    HW1  359   0.617   0.959   1.020
  116SOL    HW2  360   0.510   0.870   1.106
  117SOL     OW  361   1.360   0.862   1.045
  117SOL    HW1  362   1.285   0.862   0.979
  117SOL    HW2  363   1.397   0.770   1.054
  118SOL     OW  364   1.209   0.525   0.275
  118SOL    HW1  365   1.222   0.441   0.329
  118SOL    HW2  366   1.180   0.599   0.335
  119SOL     OW  367   0.307   0.213   1.231
  119SOL    HW1  368   0.284   0.250   1.321
  119SOL    HW2  369   0.277   0.118   1.225
  120SOL     OW  370   0.037   1.310   1.282
  120SOL    HW1  371   0.090   1.261   1.350
  120SOL    HW2  372   0.059   1.408   1.287
  121SOL     OW  373   0.732   0.634   1.064
  121SOL    HW1  374   0.791   0.608   0.988
  121SOL    HW2  375   0.704   0.730   1.053
  122SOL     OW  376   1.728   0.935   1.854
  122SOL    HW1  377   1.682   0.928   1.765
  122SOL    HW2  378   1.666   0.979   1.920
  123SOL     OW  379   0.307   0.063   0.618
  123SOL    HW1  380   0.296   0.157   0.651
  123SOL    HW2  381   0.302   0.000   0.695
  124SOL     OW  382   1.622   0.367   0.374
  124SOL    HW1  383   1.624   0.291   0.438
  124SOL    HW2  384   1.574   0.444   0.414
  125SOL     OW  385   1.023   0.766   0.966
  125SOL    HW1  386   1.038   0.787   1.062
  125SOL    HW2  387   0.993   0.671   0.957
  126SOL     OW  388   0.980   1.573   1.700
  126SOL    HW1  389   0.960   1.617   1.612
  126SOL    HW2  390   1.019   1.482   1.684
  127SOL     OW  391   1.859   1.518   1.605
  127SOL    HW1  392   1.873   1.545   1.510
  127SOL    HW2  393   1.942   1.540   1.658
  128SOL     OW  394   0.350   0.898   1.804
  128SOL    HW1  395   0.426   0.942   1.852
  128SOL    HW2  396   0.385   0.851   1.722
  129SOL     OW  397   1.540   0.274   0.125
  129SOL    HW1  398   1.479   0.199   0.148
  129SOL    HW2  399   1.562   0.326   0.208
  130SOL     OW  400   1.303   0.838   0.042
  130SOL    HW1  401   1.337   0.745   0.057
  130SOL    HW2  402   1.321   0.865  -0.053
  131SOL     OW  403   1.068   1.333   0.849
  131SOL    HW1  404   1.075   1.249   0.794
  131SOL    HW2  405   1.130   1.402   0.813
  132SOL     OW  406   0.319   0.810   0.949
  132SOL    HW1  407   0.412   0.846   0.954
  132SOL    HW2  408   0.313   0.725   1.001
  133SOL     OW  409   0.339   0.509   1.006
  133SOL    HW1  410   0.287   0.426   0.989
  133SOL    HW2  411   0.416   0.514   0.942
  134SOL     OW  412   1.138   0.380   1.678
  134SOL    HW1  413   1.093   0.443   1.742
  134SOL    HW2  414   1.231   0.411   1.661
  135SOL     OW  415   1.160   0.207   1.477
  135SOL    HW1  416   1.160   0.271   1.554
  135SOL    HW2  417   1.188   0.255   1.394
  136SOL     OW  418   0.008   1.326   0.200
  136SOL    HW1  419  -0.085   1.347   0.169
  136SOL    HW2  420   0.018   1.227   0.213
  137SOL     OW  421   0.088   1.801   0.927
  137SOL    HW1  422   0.046   1.715   0.900
  137SOL    HW2  423   0.182   1.804   0.893
  138SOL     OW  424   0.504   1.568   0.910
  138SOL    HW1  425   0.570   1.642   0.919
  138SOL    HW2  426   0.548   1.489   0.868
  139SOL     OW  427   1.002   0.796   1.238
  139SOL    HW1  428   1.043   0.764   1.324
  139SOL    HW2  429   0.906   0.769   1.235
  140SOL     OW  430   0.040   0.544   1.114
  140SOL    HW1  431   0.125   0.511   1.073
  140SOL    HW2  432   0.053   0.559   1.212
  141SOL     OW  433   0.189   0.520   1.722
  141SOL    HW1  434   0.248   0.480   1.652
  141SOL    HW2  435   0.131   0.591   1.681
  142SOL     OW  436   1.369   0.950   1.660
  142SOL    HW1  437   1.408   1.039   1.680
  142SOL    HW2  438   1.379   0.930   1.563
  143SOL     OW  439   0.815   0.572   0.325
  143SOL    HW1  440   0.822   0.483   0.279
  143SOL    HW2  441   0.721   0.606   0.317
  144SOL     OW  442   1.657   0.604   1.206
  144SOL    HW1  443   1.619   0.535   1.268
  144SOL    HW2  444   1.739   0.568   1.162
  145SOL     OW  445   0.252   1.564   1.744
  145SOL    HW1  446   0.222   1.621   1.820
  145SOL    HW2  447   0.245   1.467   1.770
  146SOL     OW  448   0.671   0.464   1.269
  146SOL    HW1  449   0.637   0.375   1.239
  146SOL    HW2  450   0.697   0.518   1.189
  147SOL     OW  451   0.930   1.678   1.465
  147SOL    HW1  452   0.906   1.660   1.370
  147SOL    HW2  453   0.960   1.772   1.475
  148SOL     OW  454   0.473   0.500   0.191
  148SOL    HW1  455   0.534   0.580   0.195
  148SOL    HW2  456   0.378   0.531   0.198
  149SOL     OW  457   0.159   1.137   1.466
  149SOL    HW1  458   0.181   1.076   1.542
  149SOL    HW2  459   0.169   1.088   1.380
  150SOL     OW  460   1.347   1.059   1.234
  150SOL    HW1  461   1.371   0.996   1.160
  150SOL    HW2  462   1.257   1.099   1.216
  151SOL     OW  463   1.302   0.855   0.309
  151SOL    HW1  464   1.216   0.824   0.351
  151SOL    HW2  465   1.298   0.841   0.210
  152SOL     OW  466   1.759   1.747   1.154
  152SOL    HW1  467   1.820   1.777   1.081
  152SOL    HW2  468   1.721   1.658   1.132
  153SOL     OW  469   1.252   1.731   1.128
  153SOL    HW1  470   1.336   1.736   1.074
  153SOL    HW2  471   1.229   1.635   1.146
  154SOL     OW  472   0.083   1.258   1.022
  154SOL    HW1  473   0.078   1.257   1.122
  154SOL    HW2  474   0.000   1.217   0.984
  155SOL     OW  475   0.688   1.662   1.716
  155SOL    HW1  476   0.632   1.743   1.725
  155SOL    HW2  477   0.740   1.666   1.630
  156SOL     OW  478   0.903   0.086   0.133
  156SOL    HW1  479   0.954   0.087   0.047
  156SOL    HW2  480   0.959   0.044   0.204
  157SOL     OW  481   1.726   0.135   0.523
  157SOL    HW1  482   1.799   0.118   0.456
  157SOL    HW2  483   1.695   0.048   0.561
  158SOL     OW  484   1.388   1.573   0.477
  158SOL    HW1  485   1.455   1.585   0.403
  158SOL    HW2  486   1.348   1.662   0.500
  159SOL     OW  487   0.130   1.794   1.851
  159SOL    HW1  488   0.089   1.720   1.904
  159SOL    HW2  489   0.194   1.845   1.909
  160SOL     OW  490   1.280   0.927   0.672
  160SOL    HW1  491   1.340   0.846   0.674
  160SOL    HW2  492   1.320   0.996   0.612
  161SOL     OW  493   0.830   1.273   1.422
  161SOL    HW1  494   0.825   1.306   1.517
  161SOL    HW2  495   0.744   1.292   1.376
  162SOL     OW  496   0.672   1.616   0.154
  162SOL    HW1  497   0.681   1.626   0.055
  162SOL    HW2  498   0.632   1.527   0.175
  163SOL     OW  499   1.650   1.720   1.394
  163SOL    HW1  500   1.703   1.730   1.310
  163SOL    HW2  501   1.623   1.810   1.428
  164SOL     OW  502   1.841   0.175   0.963
  164SOL    HW1  503   1.880   0.090   0.927
  164SOL    HW2  504   1.743   0.177   0.944
  165SOL     OW  505   0.263   0.326   0.720
  165SOL    HW1  506   0.184   0.377   0.686
  165SOL    HW2  507   0.254   0.311   0.818
  166SOL     OW  508   1.194   1.612   0.031
  166SOL    HW1  509   1.200   1.519   0.068
  166SOL    HW2  510   1.135   1.612  -0.049
  167SOL     OW  511   0.822   1.002   1.372
  167SOL    HW1  512   0.862   1.001   1.280
  167SOL    HW2  513   0.832   1.094   1.412
  168SOL     OW  514   0.916   0.910   0.291
  168SOL    HW1  515   0.979   0.948   0.223
  168SOL    HW2  516   0.956   0.827   0.330
  169SOL     OW  517   1.504   1.607   0.044
  169SOL    HW1  518   1.412   1.644   0.051
  169SOL    HW2  519   1.542   1.627  -0.046
  170SOL     OW  520   0.372   1.288   1.490
  170SOL    HW1  521   0.359   1.381   1.456
  170SOL    HW2  522   0.288   1.236   1.477
  171SOL     OW  523   1.614   1.292   1.289
  171SOL    HW1  524   1.674   1.295   1.369
  171SOL    HW2  525   1.539   1.356   1.302
  172SOL     OW  526   1.039   1.098   0.696
  172SOL    HW1  527   0.969   1.051   0.750
  172SOL    HW2  528   1.098   1.030   0.653
  173SOL     OW  529   1.014   0.236   0.971
  173SOL    HW1  530   1.006   0.200   0.878
  173SOL    HW2  531   1.012   0.160   1.036
  174SOL     OW  532   0.590   1.487   0.491
  174SOL    HW1  533   0.632   1.429   0.421
  174SOL    HW2  534   0.546   1.566   0.447
  175SOL     OW  535   1.709   0.385   1.381
  175SOL    HW1  536   1.782   0.454   1.385
  175SOL    HW2  537   1.737   0.310   1.322
  176SOL     OW  538   0.255   1.348   0.290
  176SOL    HW1  539   0.159   1.349   0.263
  176SOL    HW2  540   0.267   1.401   0.374
  177SOL     OW  541   0.105   1.013   1.726
  177SOL    HW1  542   0.028   0.980   1.780
  177SOL    HW2  543   0.190   0.983   1.768
  178SOL     OW  544   0.672   0.203   1.489
  178SOL    HW1  545   0.762   0.187   1.449
  178SOL    HW2  546   0.680   0.208   1.588
  179SOL     OW  547   0.075   0.345   0.033
  179SOL    HW1  548  -0.017   0.317   0.004
  179SOL    HW2  549   0.106   0.422  -0.023
  180SOL     OW  550   1.440   0.856   1.398
  180SOL    HW1  551   1.383   0.908   1.335
  180SOL    HW2  552   1.536   0.868   1.374
  181SOL     OW  553   0.072   0.166   0.318
  181SOL    HW1  554   0.055   0.249   0.264
  181SOL    HW2  555   0.162   0.129   0.296
  182SOL     OW  556   1.183   1.335   0.119
  182SOL    HW1  557   1.084   1.324   0.121
  182SOL    HW2  558   1.217   1.350   0.212
  183SOL     OW  559   0.613   0.842   1.431
  183SOL    HW1  560   0.669   0.923   1.414
  183SOL    HW2  561   0.672   0.762   1.434
  184SOL     OW  562   1.493   1.767   0.959
  184SOL    HW1  563   1.526   1.831   0.890
  184SOL    HW2  564   1.559   1.761   1.034
  185SOL     OW  565   0.716   0.565   1.708
  185SOL    HW1  566   0.735   0.630   1.782
  185SOL    HW2  567   0.776   0.485   1.717
  186SOL     OW  568   1.450   1.220   1.633
  186SOL    HW1  569   1.441   1.210   1.732
  186SOL    HW2  570   1.546   1.213   1.607
  187SOL     OW  571   0.390   1.741   1.560
  187SOL    HW1  572   0.299   1.782   1.558
  187SOL    HW2  573   0.383   1.647   1.592
  188SOL     OW  574   1.674   0.883   1.254
  188SOL    HW1  575   1.647   0.794   1.217
  188SOL    HW2  576   1.675   0.951   1.181
  189SOL     OW  577   1.225   0.325   0.449
  189SOL    HW1  578   1.290   0.251   0.438
  189SOL    HW2  579   1.245   0.375   0.533
  190SOL     OW  580   0.594   0.745   0.652
  190SOL    HW1  581   0.644   0.830   0.633
  190SOL    HW2  582   0.506   0.747   0.604
  191SOL     OW  583   1.777   0.342   1.642
  191SOL    HW1  584   1.760   0.373   1.548
  191SOL    HW2  585   1.693   0.305   1.680
  192SOL     OW  586   1.730   0.934   1.517
  192SOL    HW1  587   1.768   1.025   1.532
  192SOL    HW2  588   1.722   0.917   1.418
  193SOL     OW  589   0.859   1.374   0.016
  193SOL    HW1  590   0.813   1.389   0.104
  193SOL    HW2  591   0.903   1.459  -0.014
  194SOL     OW  592   0.661   1.790   0.953
  194SOL    HW1  593   0.615   1.878   0.940
  194SOL    HW2  594   0.760   1.802   0.946
  195SOL     OW  595   0.859   0.956   0.861
  195SOL    HW1  596   0.913   0.887   0.909
  195SOL    HW2  597   0.827   1.025   0.927
  196SOL     OW  598   1.083   0.984   0.087
  196SOL    HW1  599   1.060   1.037   0.005
  196SOL    HW2  600   1.164   0.928   0.068
  197SOL     OW  601   1.861   1.569   0.851
  197SOL    HW1  602   1.790   1.557   0.781
  197SOL    HW2  603   1.862   1.490   0.911
  198SOL     OW  604   0.221   1.314   1.844
  198SOL    HW1  605   0.156   1.241   1.823
  198SOL    HW2  606   0.225   1.328   1.942
  199SOL     OW  607   0.079   1.240   0.653
  199SOL    HW1  608   0.078   1.193   0.741
  199SOL    HW2  609   0.161   1.212   0.602
  200SOL     OW  610   0.672   1.391   1.624
  200SOL    HW1  611   0.594   1.341   1.662
  200SOL    HW2  612   0.669   1.486   1.655
  201SOL     OW  613   1.824   0.192   1.227
  201SOL    HW1  614   1.820   0.102   1.271
  201SOL    HW2  615   1.827   0.181   1.128
  202SOL     OW  616   0.428   0.424   0.520
  202SOL    HW1  617   0.458   0.352   0.458
  202SOL    HW2  618   0.389   0.384   0.603
  203SOL     OW  619   1.705   1.487   1.104
  203SOL    HW1  620   1.612   1.462   1.077
  203SOL    HW2  621   1.731   1.437   1.186
  204SOL     OW  622   0.317   0.547   1.280
  204SOL    HW1  623   0.355   0.488   1.352
  204SOL    HW2  624   0.357   0.521   1.192
  205SOL     OW  625   0.812   1.586   0.687
  205SOL    HW1  626   0.844   1.596   0.593
  205SOL    HW2  627   0.733   1.524   0.689
  206SOL     OW  628   1.424   0.214   1.112
  206SOL    HW1  629   1.476   0.149   1.167
  206SOL    HW2  630   1.375   0.277   1.173
  207SOL     OW  631   1.001   0.034   1.154
  207SOL    HW1  632   0.938  -0.038   1.123
  207SOL    HW2  633   1.094  -0.002   1.154
  208SOL     OW  634   0.770   1.330   0.301
  208SOL    HW1  635   0.724   1.243   0.318
  208SOL    HW2  636   0.861   1.327   0.342
  209SOL     OW  637   0.618   1.567   1.284
  209SOL    HW1  638   0.613   1.649   1.341
  209SOL    HW2  639   0.707   1.564   1.239
  210SOL     OW  640   1.352   0.052   0.168
  210SOL    HW1  641   1.387   0.011   0.084
  210SOL    HW2  642   1.262   0.014   0.188
  211SOL     OW  643   1.300   0.453   0.691
  211SOL    HW1  644   1.241   0.533   0.695
  211SOL    HW2  645   1.315   0.418   0.784
  212SOL     OW  646   1.593   0.221   0.882
  212SOL    HW1  647   1.509   0.220   0.936
  212SOL    HW2  648   1.595   0.304   0.826
  213SOL     OW  649   0.039   1.077   0.300
  213SOL    HW1  650   0.138   1.066   0.291
  213SOL    HW2  651  -0.001   0.991   0.332
  214SOL     OW  652   0.875   1.646   0.337
  214SOL    HW1  653   0.798   1.611   0.283
  214SOL    HW2  654   0.843   1.717   0.399
  215SOL     OW  655   0.230   0.628   1.975
  215SOL    HW1  656   0.137   0.626   2.012
  215SOL    HW2  657   0.231   0.589   1.883
  216SOL     OW  658   0.225   0.275   2.858
  216SOL    HW1  659   0.260   0.258   2.950
  216SOL    HW2  660   0.137   0.230   2.846
  217SOL     OW  661   0.019   0.368   2.509
  217SOL    HW1  662  -0.063   0.411   2.548
  217SOL    HW2  663  -0.009   0.295   2.446
  218SOL     OW  664   0.569   1.275   3.027
  218SOL    HW1  665   0.476   1.268   2.990
  218SOL    HW2  666   0.580   1.364   3.071
  219SOL     OW  667   1.555   1.511   2.565
  219SOL    HW1  668   1.498   1.495   2.646
  219SOL    HW2  669   1.496   1.521   2.485
  220SOL     OW  670   1.135   0.703   2.579
  220SOL    HW1  671   1.192   0.781   2.554
  220SOL    HW2  672   1.075   0.729   2.655
  221SOL     OW  673   1.755   0.607   2.093
  221SOL    HW1  674   1.743   0.594   1.994
  221SOL    HW2  675   1.725   0.526   2.142
  222SOL     OW  676   0.768   1.144   2.885
  222SOL    HW1  677   0.690   1.161   2.945
  222SOL    HW2  678   0.802   1.231   2.849
  223SOL     OW  679   0.850   0.798   3.685
  223SOL    HW1  680   0.846   0.874   3.750
  223SOL    HW2  681   0.872   0.834   3.594
  224SOL     OW  682   0.685   1.012   2.527
  224SOL    HW1  683   0.754   0.996   2.597
  224SOL    HW2  684   0.612   1.069   2.565
  225SOL     OW  685   0.686   1.161   3.665
  225SOL    HW1  686   0.746   1.240   3.679
  225SOL    HW2  687   0.600   1.192   3.624
  226SOL     OW  688   0.335   1.435   2.923
  226SOL    HW1  689   0.257   1.404   2.870
  226SOL    HW2  690   0.393   1.493   2.866
  227SOL     OW  691   1.460   1.505   3.201
  227SOL    HW1  692   1.484   1.599   3.227
  227SOL    HW2  693   1.444   1.451   3.283
  228SOL     OW  694   0.438   0.392   3.361
  228SOL    HW1  695   0.520   0.336   3.370
  228SOL    HW2  696   0.357   0.334   3.365
  229SOL     OW  697   1.603   0.447   2.599
  229SOL    HW1  698   1.529   0.493   2.549
  229SOL    HW2  699   1.654   0.515   2.652
  230SOL     OW  700   0.231   1.713   2.345
  230SOL    HW1  701   0.265   1.790   2.399
  230SOL    HW2  702   0.275   1.713   2.255
  231SOL     OW  703   1.127   1.341   3.552
  231SOL    HW1  704   1.174   1.341   3.640
  231SOL    HW2  705   1.079   1.254   3.541
  232SOL     OW  706   0.230   1.434   2.400
  232SOL    HW1  707   0.204   1.530   2.400
  232SOL    HW2  708   0.159   1.380   2.445
  233SOL     OW  709   0.240   1.091   2.748
  233SOL    HW1  710   0.254   1.007   2.800
  233SOL    HW2  711   0.185   1.155   2.803
  234SOL     OW  712   0.620   1.786   3.301
  234SOL    HW1  713   0.528   1.769   3.336
  234SOL    HW2  714   0.648   1.878   3.327
  235SOL     OW  715   0.606   0.964   1.985
  235SOL    HW1  716   0.613   1.048   1.931
  235SOL    HW2  717   0.652   0.977   2.073
  236SOL     OW  718   1.594   0.114   3.342
  236SOL    HW1  719   1.576   0.181   3.270
  236SOL    HW2  720   1.591   0.160   3.431
  237SOL     OW  721   0.122   0.643   2.425
  237SOL    HW1  722   0.077   0.555   2.442
  237SOL    HW2  723   0.121   0.697   2.509
  238SOL     OW  724   1.842   1.767   2.221
  238SOL    HW1  725   1.896   1.738   2.301
  238SOL    HW2  726   1.872   1.857   2.192
  239SOL     OW  727   0.027   1.596   1.979
  239SOL    HW1  728   0.008   1.500   2.000
  239SOL    HW2  729  -0.006   1.654   2.054
  240SOL     OW  730   1.689   0.922   2.474
  240SOL    HW1  731   1.784   0.893   2.482
  240SOL    HW2  732   1.681   0.987   2.399
  241SOL     OW  733   1.641   1.108   2.294
  241SOL    HW1  734   1.727   1.110   2.242
  241SOL    HW2  735   1.655   1.155   2.382
  242SOL     OW  736   0.113   0.737   3.459
  242SOL    HW1  737   0.201   0.724   3.504
  242SOL    HW2  738   0.100   0.834   3.437
  243SOL     OW  739   0.613   1.365   2.588
  243SOL    HW1  740   0.564   1.278   2.597
  243SOL    HW2  741   0.590   1.408   2.501
  244SOL     OW  742   1.293   1.228   3.285
  244SOL    HW1  743   1.330   1.155   3.227
  244SOL    HW2  744   1.345   1.233   3.370
  245SOL     OW  745   0.809   0.004   2.364
  245SOL    HW1  746   0.849   0.095   2.355
  245SOL    HW2  747   0.709   0.012   2.370
  246SOL     OW  748   0.197   0.976   3.126
  246SOL    HW1  749   0.286   0.931   3.112
  246SOL    HW2  750   0.124   0.911   3.107
  247SOL     OW  751   1.525   0.999   2.052
  247SOL    HW1  752   1.462   0.923   2.065
  247SOL    HW2  753   1.573   1.017   2.138
  248SOL     OW  754   1.187   1.792   3.478
  248SOL    HW1  755   1.211   1.852   3.402
  248SOL    HW2  756   1.194   1.697   3.448
  249SOL     OW  757   0.317   0.251   3.663
  249SOL    HW1  758   0.388   0.322   3.669
  249SOL    HW2  759   0.229   0.290   3.691
  250SOL     OW  760   1.466   1.417   2.815
  250SOL    HW1  761   1.407   1.423   2.895
  250SOL    HW2  762   1.451   1.329   2.769
  251SOL     OW  763   1.667   1.714   2.434
  251SOL    HW1  764   1.626   1.691   2.346
  251SOL    HW2  765   1.649   1.640   2.499
  252SOL     OW  766   0.598   0.729   2.132
  252SOL    HW1  767   0.622   0.798   2.064
  252SOL    HW2  768   0.520   0.762   2.186
  253SOL     OW  769   1.281   0.345   2.806
  253SOL    HW1  770   1.195   0.295   2.793
  253SOL    HW2  771   1.343   0.291   2.862
  254SOL     OW  772   1.576   1.662   2.169
  254SOL    HW1  773   1.665   1.708   2.172
  254SOL    HW2  774   1.555   1.638   2.074
  255SOL     OW  775   0.807   0.605   3.327
  255SOL    HW1  776   0.760   0.602   3.416
  255SOL    HW2  777   0.756   0.550   3.261
  256SOL     OW  778   1.394   0.469   3.536
  256SOL    HW1  779   1.374   0.512   3.624
  256SOL    HW2  780   1.472   0.407   3.545
  257SOL     OW  781   0.973   0.890   3.434
  257SOL    HW1  782   1.019   0.806   3.405
  257SOL    HW2  783   0.917   0.924   3.359
  258SOL     OW  784   0.991   0.410   3.104
  258SOL    HW1  785   0.914   0.444   3.158
  258SOL    HW2  786   0.957   0.359   3.025
  259SOL     OW  787   1.041   0.701   2.291
  259SOL    HW1  788   1.067   0.697   2.387
  259SOL    HW2  789   0.956   0.650   2.277
  260SOL     OW  790   0.076   0.811   2.651
  260SOL    HW1  791   0.175   0.799   2.660
  260SOL    HW2  792   0.052   0.906   2.672
  261SOL     OW  793   0.130   1.821   3.433
  261SOL    HW1  794   0.120   1.806   3.532
  261SOL    HW2  795   0.044   1.857   3.397
  262SOL     OW  796   0.865   0.348   2.057
  262SOL    HW1  797   0.924   0.411   2.008
  262SOL    HW2  798   0.884   0.254   2.028
  263SOL     OW  799   1.719   0.585   3.693
  263SOL    HW1  800   1.693   0.674   3.657
  263SOL    HW2  801   1.717   0.517   3.620
  264SOL     OW  802   1.362   1.144   2.407
  264SOL    HW1  803   1.445   1.115   2.359
  264SOL    HW2  804   1.313   1.211   2.351
  265SOL     OW  805   0.550   0.196   2.747
  265SOL    HW1  806   0.545   0.191   2.847
  265SOL    HW2  807   0.552   0.292   2.718
  266SOL     OW  808   1.008   1.456   2.339
  266SOL    HW1  809   0.962   1.528   2.287
  266SOL    HW2  810   1.004   1.476   2.437
  267SOL     OW  811   0.351   1.801   2.715
  267SOL    HW1  812   0.401   1.715   2.721
  267SOL    HW2  813   0.416   1.878   2.712
  268SOL     OW  814   1.795   1.066   2.735
  268SOL    HW1  815   1.733   1.051   2.659
  268SOL    HW2  816   1.743   1.077   2.820
  269SOL     OW  817   1.227   1.550   3.368
  269SOL    HW1  818   1.233   1.473   3.432
  269SOL    HW2  819   1.175   1.524   3.288
  270SOL     OW  820   0.321   0.943   2.104
  270SOL    HW1  821   0.403   0.982   2.062
  270SOL    HW2  822   0.294   0.861   2.055
  271SOL     OW  823   1.458   0.735   2.590
  271SOL    HW1  824   1.453   0.670   2.665
  271SOL    HW2  825   1.538   0.794   2.603
  272SOL     OW  826   0.461   1.266   3.589
  272SOL    HW1  827   0.411   1.267   3.503
  272SOL    HW2  828   0.398   1.248   3.665
  273SOL     OW  829   1.111   1.776   2.099
  273SOL    HW1  830   1.051   1.714   2.149
  273SOL    HW2  831   1.142   1.732   2.014
  274SOL     OW  832   0.202   0.285   3.360
  274SOL    HW1  833   0.122   0.345   3.347
  274SOL    HW2  834   0.192   0.236   3.446
  275SOL     OW  835   1.632   1.377   1.943
  275SOL    HW1  836   1.600   1.471   1.933
  275SOL    HW2  837   1.556   1.314   1.931
  276SOL     OW  838   0.464   1.743   2.185
  276SOL    HW1  839   0.497   1.782   2.271
  276SOL    HW2  840   0.540   1.736   2.120
  277SOL     OW  841   1.400   0.107   2.288
  277SOL    HW1  842   1.376   0.070   2.198
  277SOL    HW2  843   1.499   0.123   2.292
  278SOL     OW  844   0.249   1.785   3.103
  278SOL    HW1  845   0.306   1.720   3.153
  278SOL    HW2  846   0.233   1.752   3.010
  279SOL     OW  847   0.940   1.698   2.766
  279SOL    HW1  848   1.020   1.641   2.787
  279SOL    HW2  849   0.891   1.658   2.689
  280SOL     OW  850   0.382   0.700   2.342
  280SOL    HW1  851   0.427   0.610   2.339
  280SOL    HW2  852   0.288   0.689   2.375
  281SOL     OW  853   1.547   0.222   3.591
  281SOL    HW1  854   1.542   0.259   3.683
  281SOL    HW2  855   1.475   0.153   3.579
  282SOL     OW  856   0.614   0.122   1.979
  282SOL    HW1  857   0.712   0.100   1.986
  282SOL    HW2  858   0.583   0.105   1.886
  283SOL     OW  859   0.781   0.264   3.611
  283SOL    HW1  860   0.848   0.203   3.654
  283SOL    HW2  861   0.708   0.283   3.676
  284SOL     OW  862   0.888   1.514   3.057
  284SOL    HW1  863   0.865   1.489   2.963
  284SOL    HW2  864   0.949   1.445   3.096
  285SOL     OW  865   1.351   0.590   3.295
  285SOL    HW1  866   1.379   0.547   3.380
  285SOL    HW2  867   1.376   0.686   3.296
  286SOL     OW  868   0.803   1.402   2.786
  286SOL    HW1  869   0.893   1.416   2.744
  286SOL    HW2  870   0.732   1.404   2.715
  287SOL     OW  871   0.922   0.503   2.761
  287SOL    HW1  872   0.897   0.494   2.665
  287SOL    HW2  873   0.970   0.421   2.792
  288SOL     OW  874   0.539   0.064   2.374
  288SOL    HW1  875   0.458   0.065   2.432
  288SOL    HW2  876   0.542   0.147   2.319
  289SOL     OW  877   1.434   1.188   1.903
  289SOL    HW1  878   1.466   1.112   1.960
  289SOL    HW2  879   1.342   1.215   1.933
  290SOL     OW  880   0.297   0.035   2.033
  290SOL    HW1  881   0.346   0.119   2.012
  290SOL    HW2  882   0.359  -0.030   2.078
  291SOL     OW  883   0.935   0.236   2.342
  291SOL    HW1  884   0.887   0.277   2.264
  291SOL    HW2  885   1.034   0.234   2.323
  292SOL     OW  886   1.076   0.683   3.326
  292SOL    HW1  887   0.996   0.622   3.329
  292SOL    HW2  888   1.157   0.630   3.302
  293SOL     OW  889   1.227   1.570   2.655
  293SOL    HW1  890   1.248   1.644   2.590
  293SOL    HW2  891   1.295   1.570   2.728
  294SOL     OW  892   0.459   1.152   2.603
  294SOL    HW1  893   0.388   1.125   2.668
  294SOL    HW2  894   0.433   1.124   2.510
  295SOL     OW  895   1.271   1.797   2.453
  295SOL    HW1  896   1.315   1.861   2.389
  295SOL    HW2  897   1.221   1.849   2.523
  296SOL     OW  898   1.032   0.549   1.878
  296SOL    HW1  899   0.991   0.631   1.839
  296SOL    HW2  900   1.096   0.575   1.951
  297SOL     OW  901   0.078   0.556   3.248
  297SOL    HW1  902   0.170   0.555   3.207
  297SOL    HW2  903   0.072   0.630   3.315
  298SOL     OW  904   0.561   0.222   3.009
  298SOL    HW1  905   0.599   0.138   3.046
  298SOL    HW2  906   0.473   0.241   3.053
  299SOL     OW  907   0.866   0.454   2.504
  299SOL    HW1  908   0.834   0.526   2.442
  299SOL    HW2  909   0.890   0.373   2.451
  300SOL     OW  910   1.017   0.039   2.615
  300SOL    HW1  911   0.945   0.044   2.546
  300SOL    HW2  912   0.993  -0.030   2.684
  301SOL     OW  913   1.429   1.173   2.729
  301SOL    HW1  914   1.374   1.089   2.722
  301SOL    HW2  915   1.455   1.202   2.637
  302SOL     OW  916   1.466   0.590   2.854
  302SOL    HW1  917   1.436   0.495   2.861
  302SOL    HW2  918   1.539   0.606   2.920
  303SOL     OW  919   1.857   0.833   2.239
  303SOL    HW1  920   1.899   0.769   2.303
  303SOL    HW2  921   1.819   0.782   2.161
  304SOL     OW  922   0.488   1.385   2.036
  304SOL    HW1  923   0.401   1.370   2.083
  304SOL    HW2  924   0.471   1.411   1.941
  305SOL     OW  925   1.664   1.280   2.519
  305SOL    HW1  926   1.763   1.288   2.533
  305SOL    HW2  927   1.619   1.364   2.550
  306SOL     OW  928   1.390   0.575   1.940
  306SOL    HW1  929   1.336   0.554   2.021
  306SOL    HW2  930   1.481   0.534   1.949
  307SOL     OW  931   0.527   0.256   2.190
  307SOL    HW1  932   0.554   0.197   2.115
  307SOL    HW2  933   0.527   0.351   2.159
  308SOL     OW  934   1.754   1.223   3.450
  308SOL    HW1  935   1.845   1.184   3.437
  308SOL    HW2  936   1.762   1.319   3.474
  309SOL     OW  937   1.064   1.347   3.202
  309SOL    HW1  938   0.984   1.324   3.257
  309SOL    HW2  939   1.147   1.321   3.251
  310SOL     OW  940   1.592   1.629   3.487
  310SOL    HW1  941   1.619   1.663   3.397
  310SOL    HW2  942   1.671   1.591   3.533
  311SOL     OW  943   1.111   1.195   2.962
  311SOL    HW1  944   1.071   1.239   3.043
  311SOL    HW2  945   1.070   1.232   2.879
  312SOL     OW  946   1.638   1.099   2.941
  312SOL    HW1  947   1.643   1.180   3.000
  312SOL    HW2  948   1.552   1.101   2.890
  313SOL     OW  949   0.915   0.089   3.264
  313SOL    HW1  950   0.940   0.069   3.169
  313SOL    HW2  951   0.987   0.145   3.306
  314SOL     OW  952   0.980   1.116   3.581
  314SOL    HW1  953   0.881   1.122   3.591
  314SOL    HW2  954   1.003   1.036   3.525
  315SOL     OW  955   0.705   1.050   2.230
  315SOL    HW1  956   0.691   1.057   2.329
  315SOL    HW2  957   0.789   0.999   2.212
  316SOL     OW  958   0.410   0.813   3.113
  316SOL    HW1  959   0.496   0.825   3.163
  316SOL    HW2  960   0.368   0.726   3.140
  317SOL     OW  961   1.274   0.386   3.124
  317SOL    HW1  962   1.295   0.460   3.188
  317SOL    HW2  963   1.185   0.403   3.081
  318SOL     OW  964   0.064   1.564   3.193
  318SOL    HW1  965   0.018   1.646   3.159
  318SOL    HW2  966   0.162   1.583   3.202
  319SOL     OW  967   0.367   1.100   2.363
  319SOL    HW1  968   0.360   1.183   2.307
  319SOL    HW2  969   0.371   1.020   2.303
  320SOL     OW  970   0.566   0.537   2.727
  320SOL    HW1  971   0.578   0.603   2.653
  320SOL    HW2  972   0.612   0.571   2.810
  321SOL     OW  973   1.252   1.348   2.250
  321SOL    HW1  974   1.302   1.425   2.290
  321SOL    HW2  975   1.157   1.350   2.282
  322SOL     OW  976   1.272   1.445   3.004
  322SOL    HW1  977   1.319   1.458   3.091
  322SOL    HW2  978   1.206   1.371   3.013
  323SOL     OW  979   1.582   0.639   2.334
  323SOL    HW1  980   1.551   0.700   2.407
  323SOL    HW2  981   1.632   0.691   2.265
  324SOL     OW  982   0.354   1.510   3.191
  324SOL    HW1  983   0.333   1.466   3.104
  324SOL    HW2  984   0.451   1.536   3.194
  325SOL     OW  985   0.402   0.751   3.460
  325SOL    HW1  986   0.470   0.806   3.413
  325SOL    HW2  987   0.442   0.663   3.487
  326SOL     OW  988   1.587   0.779   3.532
  326SOL    HW1  989   1.495   0.817   3.527
  326SOL    HW2  990   1.647   0.826   3.467
  327SOL     OW  991   1.013   0.105   3.632
  327SOL    HW1  992   1.019   0.190   3.580
  327SOL    HW2  993   1.045   0.029   3.575
  328SOL     OW  994   0.504   0.050   3.602
  328SOL    HW1  995   0.462  -0.007   3.532
  328SOL    HW2  996   0.438   0.119   3.634
  329SOL     OW  997   0.573   0.870   2.891
  329SOL    HW1  998   0.617   0.959   2.882
  329SOL    HW2  999   0.510   0.870   2.968
  330SOL     OW 1000   1.360   0.862   2.907
  330SOL    HW1 1001   1.285   0.862   2.841
  330SOL    HW2 1002   1.397   0.770   2.916
  331SOL     OW 1003   1.209   0.525   2.137
  331SOL    HW1 1004   1.222   0.441   2.191
  331SOL    HW2 1005   1.180   0.599   2.197
  332SOL     OW 1006   0.307   0.213   3.093
  332SOL    HW1 1007   0.284   0.250   3.183
  332SOL    HW2 1008   0.277   0.118   3.087
  333SOL     OW 1009   0.037   1.310   3.144
  333SOL    HW1 1010   0.090   1.261   3.212
  333SOL    HW2 1011   0.059   1.408   3.149
  334SOL     OW 1012   0.732   0.634   2.926
  334SOL    HW1 1013   0.791   0.608   2.850
  334SOL    HW2 1014   0.704   0.730   2.915
  335SOL     OW 1015   1.728   0.935   3.716
  335SOL    HW1 1016   1.682   0.928   3.627
  335SOL    HW2 1017   1.666   0.979   3.782
  336SOL     OW 1018   0.307   0.063   2.480
  336SOL    HW1 1019   0.296   0.157   2.513
  336SOL    HW2 1020   0.302   0.000   2.557
  337SOL     OW 1021   1.622   0.367   2.236
  337SOL    HW1 1022   1.624   0.291   2.300
  337SOL    HW2 1023   1.574   0.444   2.276
  338SOL     OW 1024   1.023   0.766   2.828
  338SOL    HW1 1025   1.038   0.787   2.924
  338SOL    HW2 1026   0.993   0.671   2.819
  339SOL     OW 1027   0.980   1.573   3.562
  339SOL    HW1 1028   0.960   1.617   3.474
  339SOL    HW2 1029   1.019   1.482   3.546
  340SOL     OW 1030   1.859   1.518   3.467
  340SOL    HW1 1031   1.873   1.545   3.372
  340SOL    HW2 1032   1.942   1.540   3.520
  341SOL     OW 1033   0.350   0.898   3.666
  341SOL    HW1 1034   0.426   0.942   3.714
  341SOL    HW2 1035   0.385   0.851   3.584
  342SOL     OW 1036   1.540   0.274   1.987
  342SOL    HW1 1037   1.479   0.199   2.010
  342SOL    HW2 1038   1.562   0.326   2.070
  343SOL     OW 1039   1.303   0.838   1.904
  343SOL    HW1 1040   1.337   0.745   1.919
  343SOL    HW2 1041   1.321   0.865   1.809
  344SOL     OW 1042   1.068   1.333   2.711
  344SOL    HW1 1043   1.075   1.249   2.656
  344SOL    HW2 1044   1.130   1.402   2.675
  345SOL     OW 1045   0.319   0.810   2.811
  345SOL    HW1 1046   0.412   0.846   2.816
  345SOL    HW2 1047   0.313   0.725   2.863
  346SOL     OW 1048   0.339   0.509   2.868
  346SOL    HW1 1049   0.287   0.426   2.851
  346SOL    HW2 1050   0.416   0.514   2.804
  347SOL     OW 1051   1.138   0.380   3.540
  347SOL    HW1 1052   1.093   0.443   3.604
  347SOL    HW2 1053   1.231   0.411   3.523
  348SOL     OW 1054   1.160   0.207   3.339
  348SOL    HW1 1055   1.160   0.271   3.416
  348SOL    HW2 1056   1.188   0.255   3.256
  349SOL     OW 1057   0.008   1.326   2.062
  349SOL    HW1 1058  -0.085   1.347   2.031
  349SOL    HW2 1059   0.018   1.227   2.075
  350SOL     OW 1060   0.088   1.801   2.789
  350SOL    HW1 1061   0.046   1.715   2.762
  350SOL    HW2 1062   0.182   1.804   2.755
  351SOL     OW 1063   0.504   1.568   2.772
  351SOL    HW1 1064   0.570   1.642   2.781
  351SOL    HW2 1065   0.548   1.489   2.730
  352SOL     OW 1066   1.002   0.796   3.100
  352SOL    HW1 1067   1.043   0.764   3.186
  352SOL    HW2 1068   0.906   0.769   3.097
  353SOL     OW 1069   0.040   0.544   2.976
  353SOL    HW1 1070   0.125   0.511   2.935
  353SOL    HW2 1071   0.053   0.559   3.074
  354SOL     OW 1072   0.189   0.520   3.584
  354SOL    HW1 1073   0.248   0.480   3.514
  354SOL    HW2 1074   0.131   0.591   3.543
  355SOL     OW 1075   1.369   0.950   3.522
  355SOL    HW1 1076   1.408   1.039   3.542
  355SOL    HW2 1077   1.379   0.930   3.425
  356SOL     OW 1078   0.815   0.572   2.187
  356SOL    HW1 1079   0.822   0.483   2.141
  356SOL    HW2 1080   0.721   0.606   2.179
  357SOL     OW 1081   1.657   0.604   3.068
  357SOL    HW1 1082   1.619   0.535   3.130
  357SOL    HW2 1083   1.739   0.568   3.024
  358SOL     OW 1084   0.252   1.564   3.606
  358SOL    HW1 1085   0.222   1.621   3.682
  358SOL    HW2 1086   0.245   1.467   3.632
  359SOL     OW 1087   0.671   0.464   3.131
  359SOL    HW1 1088   0.637   0.375   3.101
  359SOL    HW2 1089   0.697   0.518   3.051
  360SOL     OW 1090   0.930   1.678   3.327
  360SOL    HW1 1091   0.906   1.660   3.232
  360SOL    HW2 1092   0.960   1.772   3.337
  361SOL     OW 1093   0.473   0.500   2.053
  361SOL    HW1 1094   0.534   0.580   2.057
  361SOL    HW2 1095   0.378   0.531   2.060
  362SOL     OW 1096   0.159   1.137   3.328
  362SOL    HW1 1097   0.181   1.076   3.404
  362SOL    HW2 1098   0.169   1.088   3.242
  363SOL     OW 1099   1.347   1.059   3.096
  363SOL    HW1 1100   1.371   0.996   3.022
  363SOL    HW2 1101   1.257   1.099   3.078
  364SOL     OW 1102   1.302   0.855   2.171
  364SOL    HW1 1103   1.216   0.824   2.213
  364SOL    HW2 1104   1.298   0.841   2.072
  365SOL     OW 1105   1.759   1.747   3.016
  365SOL    HW1 1106   1.820   1.777   2.943
  365SOL    HW2 1107   1.721   1.658   2.994
  366SOL     OW 1108   1.252   1.731   2.990
  366SOL    HW1 1109   1.336   1.736   2.936
  366SOL    HW2 1110   1.229   1.635   3.008
  367SOL     OW 1111   0.083   1.258   2.884
  367SOL    HW1 1112   0.078   1.257   2.984
  367SOL    HW2 1113   0.000   1.217   2.846
  368SOL     OW 1114   0.688   1.662   3.578
  368SOL    HW1 1115   0.632   1.743   3.587
  368SOL    HW2 1116   0.740   1.666   3.492
  369SOL     OW 1117   1.726   0.135   2.385
  369SOL    HW1 1118   1.799   0.118   2.318
  369SOL    HW2 1119   1.695   0.048   2.423
  370SOL     OW 1120   1.388   1.573   2.339
  370SOL    HW1 1121   1.455   1.585   2.265
  370SOL    HW2 1122   1.348   1.662   2.362
  371SOL     OW 1123   0.130   1.794   3.713
  371SOL    HW1 1124   0.089   1.720   3.766
  371SOL    HW2 1125   0.194   1.845   3.771
  372SOL     OW 1126   1.280   0.927   2.534
  372SOL    HW1 1127   1.340   0.846   2.536
  372SOL    HW2 1128   1.320   0.996   2.474
  373SOL     OW 1129   0.830   1.273   3.284
  373SOL    HW1 1130   0.825   1.306   3.379
  373SOL    HW2 1131   0.744   1.292   3.238
  374SOL     OW 1132   0.672   1.616   2.016
  374SOL    HW1 1133   0.681   1.626   1.917
  374SOL    HW2 1134   0.632   1.527   2.037
  375SOL     OW 1135   1.650   1.720   3.256
  375SOL    HW1 1136   1.703   1.730   3.172
  375SOL    HW2 1137   1.623   1.810   3.290
  376SOL     OW 1138   1.841   0.175   2.825
  376SOL    HW1 1139   1.880   0.090   2.789
  376SOL    HW2 1140   1.743   0.177   2.806
  377SOL     OW 1141   0.263   0.326   2.582
  377SOL    HW1 1142   0.184   0.377   2.548
  377SOL    HW2 1143   0.254   0.311   2.680
  378SOL     OW 1144   1.194   1.612   1.893
  378SOL    HW1 1145   1.200   1.519   1.930
  378SOL    HW2 1146   1.135   1.612   1.813
  379SOL     OW 1147   0.822   1.002   3.234
  379SOL    HW1 1148   0.862   1.001   3.142
  379SOL    HW2 1149   0.832   1.094   3.274
  380SOL     OW 1150   0.916   0.910   2.153
  380SOL    HW1 1151   0.979   0.948   2.085
  380SOL    HW2 1152   0.956   0.827   2.192
  381SOL     OW 1153   1.504   1.607   1.906
  381SOL    HW1 1154   1.412   1.644   1.913
  381SOL    HW2 1155   1.542   1.627   1.816
  382SOL     OW 1156   0.372   1.288   3.352
  382SOL    HW1 1157   0.359   1.381   3.318
  382SOL    HW2 1158   0.288   1.236   3.339
  383SOL     OW 1159   1.614   1.292   3.151
  383SOL    HW1 1160   1.674   1.295   3.231
  383SOL    HW2 1161   1.539   1.356   3.164
  384SOL     OW 1162   1.039   1.098   2.558
  384SOL    HW1 1163   0.969   1.051   2.612
  384SOL    HW2 1164   1.098   1.030   2.515
  385SOL     OW 1165   1.014   0.236   2.833
  385SOL    HW1 1166   1.006   0.200   2.740
  385SOL    HW2 1167   1.012   0.160   2.898
  386SOL     OW 1168   0.590   1.487   2.353
  386SOL    HW1 1169   0.632   1.429   2.283
  386SOL    HW2 1170   0.546   1.566   2.309
  387SOL     OW 1171   1.709   0.385   3.243
  387SOL    HW1 1172   1.782   0.454   3.247
  387SOL    HW2 1173   1.737   0.310   3.184
  388SOL     OW 1174   0.255   1.348   2.152
  388SOL    HW1 1175   0.159   1.349   2.125
  388SOL    HW2 1176   0.267   1.401   2.236
  389SOL     OW 1177   0.105   1.013   3.588
  389SOL    HW1 1178   0.028   0.980   3.642
  389SOL    HW2 1179   0.190   0.983   3.630
  390SOL     OW 1180   0.672   0.203   3.351
  390SOL    HW1 1181   0.762   0.187   3.311
  390SOL    HW2 1182   0.680   0.208   3.450
  391SOL     OW 1183   0.075   0.345   1.895
  391SOL    HW1 1184  -0.017   0.317   1.866
  391SOL    HW2 1185   0.106   0.422   1.839
  392SOL     OW 1186   1.440   0.856   3.260
  392SOL    HW1 1187   1.383   0.908   3.197
  392SOL    HW2 1188   1.536   0.868   3.236
  393SOL     OW 1189   0.072   0.166   2.180
  393SOL    HW1 1190   0.055   0.249   2.126
  393SOL    HW2 1191   0.162   0.129   2.158
  394SOL     OW 1192   1.183   1.335   1.981
  394SOL    HW1 1193   1.084   1.324   1.983
  394SOL    HW2 1194   1.217   1.350   2.074
  395SOL     OW 1195   0.613   0.842   3.293
  395SOL    HW1 1196   0.669   0.923   3.276
  395SOL    HW2 1197   0.672   0.762   3.296
  396SOL     OW 1198   1.493   1.767   2.821
  396SOL    HW1 1199   1.526   1.831   2.752
  396SOL    HW2 1200   1.559   1.761   2.896
  397SOL     OW 1201   0.716   0.565   3.570
  397SOL    HW1 1202   0.735   0.630   3.644
  397SOL    HW2 1203   0.776   0.485   3.579
  398SOL     OW 1204   1.450   1.220   3.495
  398SOL    HW1 1205   1.441   1.210   3.594
  398SOL    HW2 1206   1.546   1.213   3.469
  399SOL     OW 1207   0.390   1.741   3.422
  399SOL    HW1 1208   0.299   1.782   3.420
  399SOL    HW2 1209   0.383   1.647   3.454
  400SOL     OW 1210   1.674   0.883   3.116
  400SOL    HW1 1211   1.647   0.794   3.079
  400SOL    HW2 1212   1.675   0.951   3.043
  401SOL     OW 1213   1.225   0.325   2.311
  401SOL    HW1 1214   1.290   0.251   2.300
  401SOL    HW2 1215   1.245   0.375   2.395
  402SOL     OW 1216   0.594   0.745   2.514
  402SOL    HW1 1217   0.644   0.830   2.495
  402SOL    HW2 1218   0.506   0.747   2.466
  403SOL     OW 1219   1.777   0.342   3.504
  403SOL    HW1 1220   1.760   0.373   3.410
  403SOL    HW2 1221   1.693   0.305   3.542
  404SOL     OW 1222   1.730   0.934   3.379
  404SOL    HW1 1223   1.768   1.025   3.394
  404SOL    HW2 1224   1.722   0.917   3.280
  405SOL     OW 1225   0.859   1.374   1.878
  405SOL    HW1 1226   0.813   1.389   1.966
  405SOL    HW2 1227   0.903   1.459   1.848
  406SOL     OW 1228   0.661   1.790   2.815
  406SOL    HW1 1229   0.615   1.878   2.802
  406SOL    HW2 1230   0.760   1.802   2.808
  407SOL     OW 1231   0.859   0.956   2.723
  407SOL    HW1 1232   0.913   0.887   2.771
  407SOL    HW2 1233   0.827   1.025   2.789
  408SOL     OW 1234   1.083   0.984   1.949
  408SOL    HW1 1235   1.060   1.037   1.867
  408SOL    HW2 1236   1.164   0.928   1.930
  409SOL     OW 1237   1.861   1.569   2.713
  409SOL    HW1 1238   1.790   1.557   2.643
  409SOL    HW2 1239   1.862   1.490   2.773
  410SOL     OW 1240   0.221   1.314   3.706
  410SOL    HW1 1241   0.156   1.241   3.685
  410SOL    HW2 1242   0.225   1.328   3.804
  411SOL     OW 1243   0.079   1.240   2.515
  411SOL    HW1 1244   0.078   1.193   2.603
  411SOL    HW2 1245   0.161   1.212   2.464
  412SOL     OW 1246   0.672   1.391   3.486
  412SOL    HW1 1247   0.594   1.341   3.524
  412SOL    HW2 1248   0.669   1.486   3.517
  413SOL     OW 1249   1.824   0.192   3.089
  413SOL    HW1 1250   1.820   0.102   3.133
  413SOL    HW2 1251   1.827   0.181   2.990
  414SOL     OW 1252   0.428   0.424   2.382
  414SOL    HW1 1253   0.458   0.352   2.320
  414SOL    HW2 1254   0.389   0.384   2.465
  415SOL     OW 1255   1.705   1.487   2.966
  415SOL    HW1 1256   1.612   1.462   2.939
  415SOL    HW2 1257   1.731   1.437   3.048
  416SOL     OW 1258   0.317   0.547   3.142
  416SOL    HW1 1259   0.355   0.488   3.214
  416SOL    HW2 1260   0.357   0.521   3.054
  417SOL     OW 1261   0.812   1.586   2.549
  417SOL    HW1 1262   0.844   1.596   2.455
  417SOL    HW2 1263   0.733   1.524   2.551
  418SOL     OW 1264   1.424   0.214   2.974
  418SOL    HW1 1265   1.476   0.149   3.029
  418SOL    HW2 1266   1.375   0.277   3.035
  419SOL     OW 1267   1.001   0.034   3.016
  419SOL    HW1 1268   0.938  -0.038   2.985
  419SOL    HW2 1269   1.094  -0.002   3.016
  420SOL     OW 1270   0.770   1.330   2.163
  420SOL    HW1 1271   0.724   1.243   2.180
  420SOL    HW2 1272   0.861   1.327   2.204
  421SOL     OW 1273   0.618   1.567   3.146
  421SOL    HW1 1274   0.613   1.649   3.203
  421SOL    HW2 1275   0.707   1.564   3.101
  422SOL     OW 1276   1.352   0.052   2.030
  422SOL    HW1 1277   1.387   0.011   1.946
  422SOL    HW2 1278   1.262   0.014   2.050
  423SOL     OW 1279   1.300   0.453   2.553
  423SOL    HW1 1280   1.241   0.533   2.557
  423SOL    HW2 1281   1.315   0.418   2.646
  424SOL     OW 1282   1.593   0.221   2.744
  424SOL    HW1 1283   1.509   0.220   2.798
  424SOL    HW2 1284   1.595   0.304   2.688
  425SOL     OW 1285   0.039   1.077   2.162
  425SOL    HW1 1286   0.138   1.066   2.153
  425SOL    HW2 1287  -0.001   0.991   2.194
  426SOL     OW 1288   0.875   1.646   2.199
  426SOL    HW1 1289   0.798   1.611   2.145
  426SOL    HW2 1290   0.843   1.717   2.261
  427SOL     OW 1291   0.230   0.628   3.837
  427SOL    HW1 1292   0.137   0.626   3.874
  427SOL    HW2 1293   0.231   0.589   3.745
  428SOL     OW 1294   0.019   0.368   4.371
  428SOL    HW1 1295  -0.063   0.411   4.410
  428SOL    HW2 1296  -0.009   0.295   4.308
  429SOL     OW 1297   1.555   1.511   4.427
  429SOL    HW1 1298   1.498   1.495   4.508
  429SOL    HW2 1299   1.496   1.521   4.347
  430SOL     OW 1300   1.135   0.703   4.441
  430SOL    HW1 1301   1.192   0.781   4.416
  430SOL    HW2 1302   1.075   0.729   4.517
  431SOL     OW 1303   1.755   0.607   3.955
  431SOL    HW1 1304   1.743   0.594   3.856
  431SOL    HW2 1305   1.725   0.526   4.004
  432SOL     OW 1306   0.768   1.144   4.747
  432SOL    HW1 1307   0.690   1.161   4.807
  432SOL    HW2 1308   0.802   1.231   4.711
  433SOL     OW 1309   0.685   1.012   4.389
  433SOL    HW1 1310   0.754   0.996   4.459
  433SOL    HW2 1311   0.612   1.069   4.427
  434SOL     OW 1312   1.603   0.447   4.461
  434SOL    HW1 1313   1.529   0.493   4.411
  434SOL    HW2 1314   1.654   0.515   4.514
  435SOL     OW 1315   0.231   1.713   4.207
  435SOL    HW1 1316   0.265   1.790   4.261
  435SOL    HW2 1317   0.275   1.713   4.117
  436SOL     OW 1318   0.230   1.434   4.262
  436SOL    HW1 1319   0.204   1.530   4.262
  436SOL    HW2 1320   0.159   1.380   4.307
  437SOL     OW 1321   0.240   1.091   4.610
  437SOL    HW1 1322   0.254   1.007   4.662
  437SOL    HW2 1323   0.185   1.155   4.665
  438SOL     OW 1324   0.606   0.964   3.847
  438SOL    HW1 1325   0.613   1.048   3.793
  438SOL    HW2 1326   0.652   0.977   3.935
  439SOL     OW 1327   0.122   0.643   4.287
  439SOL    HW1 1328   0.077   0.555   4.304
  439SOL    HW2 1329   0.121   0.697   4.371
  440SOL     OW 1330   1.842   1.767   4.083
  440SOL    HW1 1331   1.896   1.738   4.163
  440SOL    HW2 1332   1.872   1.857   4.054
  441SOL     OW 1333   0.027   1.596   3.841
  441SOL    HW1 1334   0.008   1.500   3.862
  441SOL    HW2 1335  -0.006   1.654   3.916
  442SOL     OW 1336   1.689   0.922   4.336
  442SOL    HW1 1337   1.784   0.893   4.344
  442SOL    HW2 1338   1.681   0.987   4.261
  443SOL     OW 1339   1.641   1.108   4.156
  443SOL    HW1 1340   1.727   1.110   4.104
  443SOL    HW2 1341   1.655   1.155   4.244
  444SOL     OW 1342   0.613   1.365   4.450
  444SOL    HW1 1343   0.564   1.278   4.459
  444SOL    HW2 1344   0.590   1.408   4.363
  445SOL     OW 1345   0.809   0.004   4.226
  445SOL    HW1 1346   0.849   0.095   4.217
  445SOL    HW2 1347   0.709   0.012   4.232
  446SOL     OW 1348   1.525   0.999   3.914
  446SOL    HW1 1349   1.462   0.923   3.927
  446SOL    HW2 1350   1.573   1.017   4.000
  447SOL     OW 1351   1.667   1.714   4.296
  447SOL    HW1 1352   1.626   1.691   4.208
  447SOL    HW2 1353   1.649   1.640   4.361
  448SOL     OW 1354   0.598   0.729   3.994
  448SOL    HW1 1355   0.622   0.798   3.926
  448SOL    HW2 1356   0.520   0.762   4.048
  449SOL     OW 1357   1.281   0.345   4.668
  449SOL    HW1 1358   1.195   0.295   4.655
  449SOL    HW2 1359   1.343   0.291   4.724
  450SOL     OW 1360   1.576   1.662   4.031
  450SOL    HW1 1361   1.665   1.708   4.034
  450SOL    HW2 1362   1.555   1.638   3.936
  451SOL     OW 1363   1.041   0.701   4.153
  451SOL    HW1 1364   1.067   0.697   4.249
  451SOL    HW2 1365   0.956   0.650   4.139
  452SOL     OW 1366   0.076   0.811   4.513
  452SOL    HW1 1367   0.175   0.799   4.522
  452SOL    HW2 1368   0.052   0.906   4.534
  453SOL     OW 1369   0.865   0.348   3.919
  453SOL    HW1 1370   0.924   0.411   3.870
  453SOL    HW2 1371   0.884   0.254   3.890
  454SOL     OW 1372   1.362   1.144   4.269
  454SOL    HW1 1373   1.445   1.115   4.221
  454SOL    HW2 1374   1.313   1.211   4.213
  455SOL     OW 1375   1.008   1.456   4.201
  455SOL    HW1 1376   0.962   1.528   4.149
  455SOL    HW2 1377   1.004   1.476   4.299
  456SOL     OW 1378   0.351   1.801   4.577
  456SOL    HW1 1379   0.401   1.715   4.583
  456SOL    HW2 1380   0.416   1.878   4.574
  457SOL     OW 1381   1.795   1.066   4.597
  457SOL    HW1 1382   1.733   1.051   4.521
  457SOL    HW2 1383   1.743   1.077   4.682
  458SOL     OW 1384   0.321   0.943   3.966
  458SOL    HW1 1385   0.403   0.982   3.924
  458SOL    HW2 1386   0.294   0.861   3.917
  459SOL     OW 1387   1.458   0.735   4.452
  459SOL    HW1 1388   1.453   0.670   4.527
  459SOL    HW2 1389   1.538   0.794   4.465
  460SOL     OW 1390   1.111   1.776   3.961
  460SOL    HW1 1391   1.051   1.714   4.011
  460SOL    HW2 1392   1.142   1.732   3.876
  461SOL     OW 1393   1.632   1.377   3.805
  461SOL    HW1 1394   1.600   1.471   3.795
  461SOL    HW2 1395   1.556   1.314   3.793
  462SOL     OW 1396   0.464   1.743   4.047
  462SOL    HW1 1397   0.497   1.782   4.133
  462SOL    HW2 1398   0.540   1.736   3.982
  463SOL     OW 1399   1.400   0.107   4.150
  463SOL    HW1 1400   1.376   0.070   4.060
  463SOL    HW2 1401   1.499   0.123   4.154
  464SOL     OW 1402   0.382   0.700   4.204
  464SOL    HW1 1403   0.427   0.610   4.201
  464SOL    HW2 1404   0.288   0.689   4.237
  465SOL     OW 1405   0.614   0.122   3.841
  465SOL    HW1 1406   0.712   0.100   3.848
  465SOL    HW2 1407   0.583   0.105   3.748
  466SOL     OW 1408   0.539   0.064   4.236
  466SOL    HW1 1409   0.458   0.065   4.294
  466SOL    HW2 1410   0.542   0.147   4.181
  467SOL     OW 1411   1.434   1.188   3.765
  467SOL    HW1 1412   1.466   1.112   3.822
  467SOL    HW2 1413   1.342   1.215   3.795
  468SOL     OW 1414   0.297   0.035   3.895
  468SOL    HW1 1415   0.346   0.119   3.874
  468SOL    HW2 1416   0.359  -0.030   3.940
  469SOL     OW 1417   0.935   0.236   4.204
  469SOL    HW1 1418   0.887   0.277   4.126
  469SOL    HW2 1419   1.034   0.234   4.185
  470SOL     OW 1420   0.459   1.152   4.465
  470SOL    HW1 1421   0.388   1.125   4.530
  470SOL    HW2 1422   0.433   1.124   4.372
  471SOL     OW 1423   1.271   1.797   4.315
  471SOL    HW1 1424   1.315   1.861   4.251
  471SOL    HW2 1425   1.221   1.849   4.385
  472SOL     OW 1426   1.032   0.549   3.740
  472SOL    HW1 1427   0.991   0.631   3.701
  472SOL    HW2 1428   1.096   0.575   3.813
  473SOL     OW 1429   0.866   0.454   4.366
  473SOL    HW1 1430   0.834   0.526   4.304
  473SOL    HW2 1431   0.890   0.373   4.313
  474SOL     OW 1432   1.017   0.039   4.477
  474SOL    HW1 1433   0.945   0.044   4.408
  474SOL    HW2 1434   0.993  -0.030   4.546
  475SOL     OW 1435   1.857   0.833   4.101
  475SOL    HW1 1436   1.899   0.769   4.165
  475SOL    HW2 1437   1.819   0.782   4.023
  476SOL     OW 1438   0.488   1.385   3.898
  476SOL    HW1 1439   0.401   1.370   3.945
  476SOL    HW2 1440   0.471   1.411   3.803
  477SOL     OW 1441   1.664   1.280   4.381
  477SOL    HW1 1442   1.763   1.288   4.395
  477SOL    HW2 1443   1.619   1.364   4.412
  478SOL     OW 1444   1.390   0.575   3.802
  478SOL    HW1 1445   1.336   0.554   3.883
  478SOL    HW2 1446   1.481   0.534   3.811
  479SOL     OW 1447   0.527   0.256   4.052
  479SOL    HW1 1448   0.554   0.197   3.977
  479SOL    HW2 1449   0.527   0.351   4.021
  480SOL     OW 1450   0.705   1.050   4.092
  480SOL    HW1 1451   0.691   1.057   4.191
  480SOL    HW2 1452   0.789   0.999   4.074
  481SOL     OW 1453   0.367   1.100   4.225
  481SOL    HW1 1454   0.360   1.183   4.169
  481SOL    HW2 1455   0.371   1.020   4.165
  482SOL     OW 1456   0.566   0.537   4.589
  482SOL    HW1 1457   0.578   0.603   4.515
  482SOL    HW2 1458   0.612   0.571   4.672
  483SOL     OW 1459   1.252   1.348   4.112
  483SOL    HW1 1460   1.302   1.425   4.152
  483SOL    HW2 1461   1.157   1.350   4.144
  484SOL     OW 1462   1.582   0.639   4.196
  484SOL    HW1 1463   1.551   0.700   4.269
  484SOL    HW2 1464   1.632   0.691   4.127
  485SOL     OW 1465   1.209   0.525   3.999
  485SOL    HW1 1466   1.222   0.441   4.053
  485SOL    HW2 1467   1.180   0.599   4.059
  486SOL     OW 1468   0.307   0.063   4.342
  486SOL    HW1 1469   0.296   0.157   4.375
  486SOL    HW2 1470   0.302   0.000   4.419
  487SOL     OW 1471   1.622   0.367   4.098
  487SOL    HW1 1472   1.624   0.291   4.162
  487SOL    HW2 1473   1.574   0.444   4.138
  488SOL     OW 1474   1.540   0.274   3.849
  488SOL    HW1 1475   1.479   0.199   3.872
  488SOL    HW2 1476   1.562   0.326   3.932
  489SOL     OW 1477   1.303   0.838   3.766
  489SOL    HW1 1478   1.337   0.745   3.781
  489SOL    HW2 1479   1.321   0.865   3.671
  490SOL     OW 1480   1.068   1.333   4.573
  490SOL    HW1 1481   1.075   1.249   4.518
  490SOL    HW2 1482   1.130   1.402   4.537
  491SOL     OW 1483   0.008   1.326   3.924
  491SOL    HW1 1484  -0.085   1.347   3.893
  491SOL    HW2 1485   0.018   1.227   3.937
  492SOL     OW 1486   0.088   1.801   4.651
  492SOL    HW1 1487   0.046   1.715   4.624
  492SOL    HW2 1488   0.182   1.804   4.617
  493SOL     OW 1489   0.815   0.572   4.049
  493SOL    HW1 1490   0.822   0.483   4.003
  493SOL    HW2 1491   0.721   0.606   4.041
  494SOL     OW 1492   0.473   0.500   3.915
  494SOL    HW1 1493   0.534   0.580   3.919
  494SOL    HW2 1494   0.378   0.531   3.922
  495SOL     OW 1495   1.302   0.855   4.033
  495SOL    HW1 1496   1.216   0.824   4.075
  495SOL    HW2 1497   1.298   0.841   3.934
  496SOL     OW 1498   1.726   0.135   4.247
  496SOL    HW1 1499   1.799   0.118   4.180
  496SOL    HW2 1500   1.695   0.048   4.285
  497SOL     OW 1501   1.388   1.573   4.201
  497SOL    HW1 1502   1.455   1.585   4.127
  497SOL    HW2 1503   1.348   1.662   4.224
  498SOL     OW 1504   1.280   0.927   4.396
  498SOL    HW1 1505   1.340   0.846   4.398
  498SOL    HW2 1506   1.320   0.996   4.336
  499SOL     OW 1507   0.672   1.616   3.878
  499SOL    HW1 1508   0.681   1.626   3.779
  499SOL    HW2 1509   0.632   1.527   3.899
  500SOL     OW 1510   1.841   0.175   4.687
  500SOL    HW1 1511   1.880   0.090   4.651
  500SOL    HW2 1512   1.743   0.177   4.668
  501SOL     OW 1513   0.263   0.326   4.444
  501SOL    HW1 1514   0.184   0.377   4.410
  501SOL    HW2 1515   0.254   0.311   4.542
  502SOL     OW 1516   1.194   1.612   3.755
  502SOL    HW1 1517   1.200   1.519   3.792
  502SOL    HW2 1518   1.135   1.612   3.675
  503SOL     OW 1519   0.916   0.910   4.015
  503SOL    HW1 1520   0.979   0.948   3.947
  503SOL    HW2 1521   0.956   0.827   4.054
  504SOL     OW 1522   1.504   1.607   3.768
  504SOL    HW1 1523   1.412   1.644   3.775
  504SOL    HW2 1524   1.542   1.627   3.678
  505SOL     OW 1525   1.039   1.098   4.420
  505SOL    HW1 1526   0.969   1.051   4.474
  505SOL    HW2 1527   1.098   1.030   4.377
  506SOL     OW 1528   0.590   1.487   4.215
  506SOL    HW1 1529   0.632   1.429   4.145
  506SOL    HW2 1530   0.546   1.566   4.171
  507SOL     OW 1531   0.255   1.348   4.014
  507SOL    HW1 1532   0.159   1.349   3.987
  507SOL    HW2 1533   0.267   1.401   4.098
  508SOL     OW 1534   0.075   0.345   3.757
  508SOL    HW1 1535  -0.017   0.317   3.728
  508SOL    HW2 1536   0.106   0.422   3.701
  509SOL     OW 1537   0.072   0.166   4.042
  509SOL    HW1 1538   0.055   0.249   3.988
  509SOL    HW2 1539   0.162   0.129   4.020
  510SOL     OW 1540   1.183   1.335   3.843
  510SOL    HW1 1541   1.084   1.324   3.845
  510SOL    HW2 1542   1.217   1.350   3.936
  511SOL     OW 1543   1.225   0.325   4.173
  511SOL    HW1 1544   1.290   0.251   4.162
  511SOL    HW2 1545   1.245   0.375   4.257
  512SOL     OW 1546   0.594   0.745   4.376
  512SOL    HW1 1547   0.644   0.830   4.357
  512SOL    HW2 1548   0.506   0.747   4.328
  513SOL     OW 1549   0.859   1.374   3.740
  513SOL    HW1 1550   0.813   1.389   3.828
  513SOL    HW2 1551   0.903   1.459   3.710
  514SOL     OW 1552   0.661   1.790   4.677
  514SOL    HW1 1553   0.615   1.878   4.664
  514SOL    HW2 1554   0.760   1.802   4.670
  515SOL     OW 1555   0.859   0.956   4.585
  515SOL    HW1 1556   0.913   0.887   4.633
  515SOL    HW2 1557   0.827   1.025   4.651
  516SOL     OW 1558   1.083   0.984   3.811
  516SOL    HW1 1559   1.060   1.037   3.729
  516SOL    HW2 1560   1.164   0.928   3.792
  517SOL     OW 1561   1.861   1.569   4.575
  517SOL    HW1 1562   1.790   1.557   4.505
  517SOL    HW2 1563   1.862   1.490   4.635
  518SOL     OW 1564   0.079   1.240   4.377
  518SOL    HW1 1565   0.078   1.193   4.465
  518SOL    HW2 1566   0.161   1.212   4.326
  519SOL     OW 1567   0.428   0.424   4.244
  519SOL    HW1 1568   0.458   0.352   4.182
  519SOL    HW2 1569   0.389   0.384   4.327
  520SOL     OW 1570   0.812   1.586   4.411
  520SOL    HW1 1571   0.844   1.596   4.317
  520SOL    HW2 1572   0.733   1.524   4.413
  521SOL     OW 1573   0.770   1.330   4.025
  521SOL    HW1 1574   0.724   1.243   4.042
  521SOL    HW2 1575   0.861   1.327   4.066
  522SOL     OW 1576   1.352   0.052   3.892
  522SOL    HW1 1577   1.387   0.011   3.808
  522SOL    HW2 1578   1.262   0.014   3.912
  523SOL     OW 1579   1.300   0.453   4.415
  523SOL    HW1 1580   1.241   0.533   4.419
  523SOL    HW2 1581   1.315   0.418   4.508
  524SOL     OW 1582   0.039   1.077   4.024
  524SOL    HW1 1583   0.138   1.066   4.015
  524SOL    HW2 1584  -0.001   0.991   4.056
  525SOL     OW 1585   0.875   1.646   4.061
  525SOL    HW1 1586   0.798   1.611   4.007
  525SOL    HW2 1587   0.843   1.717   4.123
  526SOL     OW 1588   0.230   2.490   0.113
  526SOL    HW1 1589   0.137   2.488   0.150
  526SOL    HW2 1590   0.231   2.451   0.021
  527SOL     OW 1591   0.225   2.137   0.996
  527SOL    HW1 1592   0.260   2.120   1.088
  527SOL    HW2 1593   0.137   2.092   0.984
  528SOL     OW 1594   0.019   2.230   0.647
  528SOL    HW1 1595  -0.063   2.273   0.686
  528SOL    HW2 1596  -0.009   2.157   0.584
  529SOL     OW 1597   0.569   3.137   1.165
  529SOL    HW1 1598   0.476   3.130   1.128
  529SOL    HW2 1599   0.580   3.226   1.209
  530SOL     OW 1600   1.555   3.373   0.703
  530SOL    HW1 1601   1.498   3.357   0.784
  530SOL    HW2 1602   1.496   3.383   0.623
  531SOL     OW 1603   1.135   2.565   0.717
  531SOL    HW1 1604   1.192   2.643   0.692
  531SOL    HW2 1605   1.075   2.591   0.793
  532SOL     OW 1606   1.755   2.469   0.231
  532SOL    HW1 1607   1.743   2.456   0.132
  532SOL    HW2 1608   1.725   2.388   0.280
  533SOL     OW 1609   0.768   3.006   1.023
  533SOL    HW1 1610   0.690   3.023   1.083
  533SOL    HW2 1611   0.802   3.093   0.987
  534SOL     OW 1612   0.850   2.660   1.823
  534SOL    HW1 1613   0.846   2.736   1.888
  534SOL    HW2 1614   0.872   2.696   1.732
  535SOL     OW 1615   0.685   2.874   0.665
  535SOL    HW1 1616   0.754   2.858   0.735
  535SOL    HW2 1617   0.612   2.931   0.703
  536SOL     OW 1618   0.686   3.023   1.803
  536SOL    HW1 1619   0.746   3.102   1.817
  536SOL    HW2 1620   0.600   3.054   1.762
  537SOL     OW 1621   0.335   3.297   1.061
  537SOL    HW1 1622   0.257   3.266   1.008
  537SOL    HW2 1623   0.393   3.355   1.004
  538SOL     OW 1624   1.460   3.367   1.339
  538SOL    HW1 1625   1.484   3.461   1.365
  538SOL    HW2 1626   1.444   3.313   1.421
  539SOL     OW 1627   0.438   2.254   1.499
  539SOL    HW1 1628   0.520   2.198   1.508
  539SOL    HW2 1629   0.357   2.196   1.503
  540SOL     OW 1630   1.603   2.309   0.737
  540SOL    HW1 1631   1.529   2.355   0.687
  540SOL    HW2 1632   1.654   2.377   0.790
  541SOL     OW 1633   0.231   3.575   0.483
  541SOL    HW1 1634   0.265   3.652   0.537
  541SOL    HW2 1635   0.275   3.575   0.393
  542SOL     OW 1636   1.127   3.203   1.690
  542SOL    HW1 1637   1.174   3.203   1.778
  542SOL    HW2 1638   1.079   3.116   1.679
  543SOL     OW 1639   0.230   3.296   0.538
  543SOL    HW1 1640   0.204   3.392   0.538
  543SOL    HW2 1641   0.159   3.242   0.583
  544SOL     OW 1642   0.240   2.953   0.886
  544SOL    HW1 1643   0.254   2.869   0.938
  544SOL    HW2 1644   0.185   3.017   0.941
  545SOL     OW 1645   0.620   3.648   1.439
  545SOL    HW1 1646   0.528   3.631   1.474
  545SOL    HW2 1647   0.648   3.740   1.465
  546SOL     OW 1648   0.606   2.826   0.123
  546SOL    HW1 1649   0.613   2.910   0.069
  546SOL    HW2 1650   0.652   2.839   0.211
  547SOL     OW 1651   1.594   1.976   1.480
  547SOL    HW1 1652   1.576   2.043   1.408
  547SOL    HW2 1653   1.591   2.022   1.569
  548SOL     OW 1654   0.122   2.505   0.563
  548SOL    HW1 1655   0.077   2.417   0.580
  548SOL    HW2 1656   0.121   2.559   0.647
  549SOL     OW 1657   1.842   3.629   0.359
  549SOL    HW1 1658   1.896   3.600   0.439
  549SOL    HW2 1659   1.872   3.719   0.330
  550SOL     OW 1660   0.027   3.458   0.117
  550SOL    HW1 1661   0.008   3.362   0.138
  550SOL    HW2 1662  -0.006   3.516   0.192
  551SOL     OW 1663   1.689   2.784   0.612
  551SOL    HW1 1664   1.784   2.755   0.620
  551SOL    HW2 1665   1.681   2.849   0.537
  552SOL     OW 1666   1.641   2.970   0.432
  552SOL    HW1 1667   1.727   2.972   0.380
  552SOL    HW2 1668   1.655   3.017   0.520
  553SOL     OW 1669   0.113   2.599   1.597
  553SOL    HW1 1670   0.201   2.586   1.642
  553SOL    HW2 1671   0.100   2.696   1.575
  554SOL     OW 1672   0.613   3.227   0.726
  554SOL    HW1 1673   0.564   3.140   0.735
  554SOL    HW2 1674   0.590   3.270   0.639
  555SOL     OW 1675   1.293   3.090   1.423
  555SOL    HW1 1676   1.330   3.017   1.365
  555SOL    HW2 1677   1.345   3.095   1.508
  556SOL     OW 1678   0.809   1.866   0.502
  556SOL    HW1 1679   0.849   1.957   0.493
  556SOL    HW2 1680   0.709   1.874   0.508
  557SOL     OW 1681   0.197   2.838   1.264
  557SOL    HW1 1682   0.286   2.793   1.250
  557SOL    HW2 1683   0.124   2.773   1.245
  558SOL     OW 1684   1.525   2.861   0.190
  558SOL    HW1 1685   1.462   2.785   0.203
  558SOL    HW2 1686   1.573   2.879   0.276
  559SOL     OW 1687   1.187   3.654   1.616
  559SOL    HW1 1688   1.211   3.714   1.540
  559SOL    HW2 1689   1.194   3.559   1.586
  560SOL     OW 1690   0.317   2.113   1.801
  560SOL    HW1 1691   0.388   2.184   1.807
  560SOL    HW2 1692   0.229   2.152   1.829
  561SOL     OW 1693   1.466   3.279   0.953
  561SOL    HW1 1694   1.407   3.285   1.033
  561SOL    HW2 1695   1.451   3.191   0.907
  562SOL     OW 1696   1.667   3.576   0.572
  562SOL    HW1 1697   1.626   3.553   0.484
  562SOL    HW2 1698   1.649   3.502   0.637
  563SOL     OW 1699   0.598   2.591   0.270
  563SOL    HW1 1700   0.622   2.660   0.202
  563SOL    HW2 1701   0.520   2.624   0.324
  564SOL     OW 1702   1.281   2.207   0.944
  564SOL    HW1 1703   1.195   2.157   0.931
  564SOL    HW2 1704   1.343   2.153   1.000
  565SOL     OW 1705   1.576   3.524   0.307
  565SOL    HW1 1706   1.665   3.570   0.310
  565SOL    HW2 1707   1.555   3.500   0.212
  566SOL     OW 1708   0.807   2.467   1.465
  566SOL    HW1 1709   0.760   2.464   1.554
  566SOL    HW2 1710   0.756   2.412   1.399
  567SOL     OW 1711   1.394   2.331   1.674
  567SOL    HW1 1712   1.374   2.374   1.762
  567SOL    HW2 1713   1.472   2.269   1.683
  568SOL     OW 1714   0.973   2.752   1.572
  568SOL    HW1 1715   1.019   2.668   1.543
  568SOL    HW2 1716   0.917   2.786   1.497
  569SOL     OW 1717   0.991   2.272   1.242
  569SOL    HW1 1718   0.914   2.306   1.296
  569SOL    HW2 1719   0.957   2.221   1.163
  570SOL     OW 1720   1.041   2.563   0.429
  570SOL    HW1 1721   1.067   2.559   0.525
  570SOL    HW2 1722   0.956   2.512   0.415
  571SOL     OW 1723   0.076   2.673   0.789
  571SOL    HW1 1724   0.175   2.661   0.798
  571SOL    HW2 1725   0.052   2.768   0.810
  572SOL     OW 1726   0.130   3.683   1.571
  572SOL    HW1 1727   0.120   3.668   1.670
  572SOL    HW2 1728   0.044   3.719   1.535
  573SOL     OW 1729   0.865   2.210   0.195
  573SOL    HW1 1730   0.924   2.273   0.146
  573SOL    HW2 1731   0.884   2.116   0.166
  574SOL     OW 1732   1.719   2.447   1.831
  574SOL    HW1 1733   1.693   2.536   1.795
  574SOL    HW2 1734   1.717   2.379   1.758
  575SOL     OW 1735   1.362   3.006   0.545
  575SOL    HW1 1736   1.445   2.977   0.497
  575SOL    HW2 1737   1.313   3.073   0.489
  576SOL     OW 1738   0.550   2.058   0.885
  576SOL    HW1 1739   0.545   2.053   0.985
  576SOL    HW2 1740   0.552   2.154   0.856
  577SOL     OW 1741   1.008   3.318   0.477
  577SOL    HW1 1742   0.962   3.390   0.425
  577SOL    HW2 1743   1.004   3.338   0.575
  578SOL     OW 1744   0.351   3.663   0.853
  578SOL    HW1 1745   0.401   3.577   0.859
  578SOL    HW2 1746   0.416   3.740   0.850
  579SOL     OW 1747   1.795   2.928   0.873
  579SOL    HW1 1748   1.733   2.913   0.797
  579SOL    HW2 1749   1.743   2.939   0.958
  580SOL     OW 1750   1.227   3.412   1.506
  580SOL    HW1 1751   1.233   3.335   1.570
  580SOL    HW2 1752   1.175   3.386   1.426
  581SOL     OW 1753   0.321   2.805   0.242
  581SOL    HW1 1754   0.403   2.844   0.200
  581SOL    HW2 1755   0.294   2.723   0.193
  582SOL     OW 1756   1.458   2.597   0.728
  582SOL    HW1 1757   1.453   2.532   0.803
  582SOL    HW2 1758   1.538   2.656   0.741
  583SOL     OW 1759   0.461   3.128   1.727
  583SOL    HW1 1760   0.411   3.129   1.641
  583SOL    HW2 1761   0.398   3.110   1.803
  584SOL     OW 1762   1.111   3.638   0.237
  584SOL    HW1 1763   1.051   3.576   0.287
  584SOL    HW2 1764   1.142   3.594   0.152
  585SOL     OW 1765   0.202   2.147   1.498
  585SOL    HW1 1766   0.122   2.207   1.485
  585SOL    HW2 1767   0.192   2.098   1.584
  586SOL     OW 1768   1.632   3.239   0.081
  586SOL    HW1 1769   1.600   3.333   0.071
  586SOL    HW2 1770   1.556   3.176   0.069
  587SOL     OW 1771   0.464   3.605   0.323
  587SOL    HW1 1772   0.497   3.644   0.409
  587SOL    HW2 1773   0.540   3.598   0.258
  588SOL     OW 1774   1.400   1.969   0.426
  588SOL    HW1 1775   1.376   1.932   0.336
  588SOL    HW2 1776   1.499   1.985   0.430
  589SOL     OW 1777   0.249   3.647   1.241
  589SOL    HW1 1778   0.306   3.582   1.291
  589SOL    HW2 1779   0.233   3.614   1.148
  590SOL     OW 1780   0.940   3.560   0.904
  590SOL    HW1 1781   1.020   3.503   0.925
  590SOL    HW2 1782   0.891   3.520   0.827
  591SOL     OW 1783   0.382   2.562   0.480
  591SOL    HW1 1784   0.427   2.472   0.477
  591SOL    HW2 1785   0.288   2.551   0.513
  592SOL     OW 1786   1.547   2.084   1.729
  592SOL    HW1 1787   1.542   2.121   1.821
  592SOL    HW2 1788   1.475   2.015   1.717
  593SOL     OW 1789   0.781   2.126   1.749
  593SOL    HW1 1790   0.848   2.065   1.792
  593SOL    HW2 1791   0.708   2.145   1.814
  594SOL     OW 1792   0.888   3.376   1.195
  594SOL    HW1 1793   0.865   3.351   1.101
  594SOL    HW2 1794   0.949   3.307   1.234
  595SOL     OW 1795   1.351   2.452   1.433
  595SOL    HW1 1796   1.379   2.409   1.518
  595SOL    HW2 1797   1.376   2.548   1.434
  596SOL     OW 1798   0.803   3.264   0.924
  596SOL    HW1 1799   0.893   3.278   0.882
  596SOL    HW2 1800   0.732   3.266   0.853
  597SOL     OW 1801   0.922   2.365   0.899
  597SOL    HW1 1802   0.897   2.356   0.803
  597SOL    HW2 1803   0.970   2.283   0.930
  598SOL     OW 1804   0.539   1.926   0.512
  598SOL    HW1 1805   0.458   1.927   0.570
  598SOL    HW2 1806   0.542   2.009   0.457
  599SOL     OW 1807   1.434   3.050   0.041
  599SOL    HW1 1808   1.466   2.974   0.098
  599SOL    HW2 1809   1.342   3.077   0.071
  600SOL     OW 1810   0.297   1.897   0.171
  600SOL    HW1 1811   0.346   1.981   0.150
  600SOL    HW2 1812   0.359   1.832   0.216
  601SOL     OW 1813   0.935   2.098   0.480
  601SOL    HW1 1814   0.887   2.139   0.402
  601SOL    HW2 1815   1.034   2.096   0.461
  602SOL     OW 1816   1.076   2.545   1.464
  602SOL    HW1 1817   0.996   2.484   1.467
  602SOL    HW2 1818   1.157   2.492   1.440
  603SOL     OW 1819   1.227   3.432   0.793
  603SOL    HW1 1820   1.248   3.506   0.728
  603SOL    HW2 1821   1.295   3.432   0.866
  604SOL     OW 1822   0.459   3.014   0.741
  604SOL    HW1 1823   0.388   2.987   0.806
  604SOL    HW2 1824   0.433   2.986   0.648
  605SOL     OW 1825   1.271   3.659   0.591
  605SOL    HW1 1826   1.315   3.723   0.527
  605SOL    HW2 1827   1.221   3.711   0.661
  606SOL     OW 1828   1.032   2.411   0.016
  606SOL    HW1 1829   0.991   2.493  -0.023
  606SOL    HW2 1830   1.096   2.437   0.089
  607SOL     OW 1831   0.078   2.418   1.386
  607SOL    HW1 1832   0.170   2.417   1.345
  607SOL    HW2 1833   0.072   2.492   1.453
  608SOL     OW 1834   0.561   2.084   1.147
  608SOL    HW1 1835   0.599   2.000   1.184
  608SOL    HW2 1836   0.473   2.103   1.191
  609SOL     OW 1837   0.866   2.316   0.642
  609SOL    HW1 1838   0.834   2.388   0.580
  609SOL    HW2 1839   0.890   2.235   0.589
  610SOL     OW 1840   1.017   1.901   0.753
  610SOL    HW1 1841   0.945   1.906   0.684
  610SOL    HW2 1842   0.993   1.832   0.822
  611SOL     OW 1843   1.429   3.035   0.867
  611SOL    HW1 1844   1.374   2.951   0.860
  611SOL    HW2 1845   1.455   3.064   0.775
  612SOL     OW 1846   1.466   2.452   0.992
  612SOL    HW1 1847   1.436   2.357   0.999
  612SOL    HW2 1848   1.539   2.468   1.058
  613SOL     OW 1849   1.857   2.695   0.377
  613SOL    HW1 1850   1.899   2.631   0.441
  613SOL    HW2 1851   1.819   2.644   0.299
  614SOL     OW 1852   0.488   3.247   0.174
  614SOL    HW1 1853   0.401   3.232   0.221
  614SOL    HW2 1854   0.471   3.273   0.079
  615SOL     OW 1855   1.664   3.142   0.657
  615SOL    HW1 1856   1.763   3.150   0.671
  615SOL    HW2 1857   1.619   3.226   0.688
  616SOL     OW 1858   1.390   2.437   0.078
  616SOL    HW1 1859   1.336   2.416   0.159
  616SOL    HW2 1860   1.481   2.396   0.087
  617SOL     OW 1861   0.527   2.118   0.328
  617SOL    HW1 1862   0.554   2.059   0.253
  617SOL    HW2 1863   0.527   2.213   0.297
  618SOL     OW 1864   1.754   3.085   1.588
  618SOL    HW1 1865   1.845   3.046   1.575
  618SOL    HW2 1866   1.762   3.181   1.612
  619SOL     OW 1867   1.064   3.209   1.340
  619SOL    HW1 1868   0.984   3.186   1.395
  619SOL    HW2 1869   1.147   3.183   1.389
  620SOL     OW 1870   1.592   3.491   1.625
  620SOL    HW1 1871   1.619   3.525   1.535
  620SOL    HW2 1872   1.671   3.453   1.671
  621SOL     OW 1873   1.111   3.057   1.100
  621SOL    HW1 1874   1.071   3.101   1.181
  621SOL    HW2 1875   1.070   3.094   1.017
  622SOL     OW 1876   1.638   2.961   1.079
  622SOL    HW1 1877   1.643   3.042   1.138
  622SOL    HW2 1878   1.552   2.963   1.028
  623SOL     OW 1879   0.915   1.951   1.402
  623SOL    HW1 1880   0.940   1.931   1.307
  623SOL    HW2 1881   0.987   2.007   1.444
  624SOL     OW 1882   0.980   2.978   1.719
  624SOL    HW1 1883   0.881   2.984   1.729
  624SOL    HW2 1884   1.003   2.898   1.663
  625SOL     OW 1885   0.705   2.912   0.368
  625SOL    HW1 1886   0.691   2.919   0.467
  625SOL    HW2 1887   0.789   2.861   0.350
  626SOL     OW 1888   0.410   2.675   1.251
  626SOL    HW1 1889   0.496   2.687   1.301
  626SOL    HW2 1890   0.368   2.588   1.278
  627SOL     OW 1891   1.274   2.248   1.262
  627SOL    HW1 1892   1.295   2.322   1.326
  627SOL    HW2 1893   1.185   2.265   1.219
  628SOL     OW 1894   0.064   3.426   1.331
  628SOL    HW1 1895   0.018   3.508   1.297
  628SOL    HW2 1896   0.162   3.445   1.340
  629SOL     OW 1897   0.367   2.962   0.501
  629SOL    HW1 1898   0.360   3.045   0.445
  629SOL    HW2 1899   0.371   2.882   0.441
  630SOL     OW 1900   0.566   2.399   0.865
  630SOL    HW1 1901   0.578   2.465   0.791
  630SOL    HW2 1902   0.612   2.433   0.948
  631SOL     OW 1903   1.252   3.210   0.388
  631SOL    HW1 1904   1.302   3.287   0.428
  631SOL    HW2 1905   1.157   3.212   0.420
  632SOL     OW 1906   1.272   3.307   1.142
  632SOL    HW1 1907   1.319   3.320   1.229
  632SOL    HW2 1908   1.206   3.233   1.151
  633SOL     OW 1909   1.582   2.501   0.472
  633SOL    HW1 1910   1.551   2.562   0.545
  633SOL    HW2 1911   1.632   2.553   0.403
  634SOL     OW 1912   0.354   3.372   1.329
  634SOL    HW1 1913   0.333   3.328   1.242
  634SOL    HW2 1914   0.451   3.398   1.332
  635SOL     OW 1915   0.402   2.613   1.598
  635SOL    HW1 1916   0.470   2.668   1.551
  635SOL    HW2 1917   0.442   2.525   1.625
  636SOL     OW 1918   1.587   2.641   1.670
  636SOL    HW1 1919   1.495   2.679   1.665
  636SOL    HW2 1920   1.647   2.688   1.605
  637SOL     OW 1921   1.013   1.967   1.770
  637SOL    HW1 1922   1.019   2.052   1.718
  637SOL    HW2 1923   1.045   1.891   1.713
  638SOL     OW 1924   0.504   1.912   1.740
  638SOL    HW1 1925   0.462   1.855   1.670
  638SOL    HW2 1926   0.438   1.981   1.772
  639SOL     OW 1927   0.573   2.732   1.029
  639SOL    HW1 1928   0.617   2.821   1.020
  639SOL    HW2 1929   0.510   2.732   1.106
  640SOL     OW 1930   1.360   2.724   1.045
  640SOL    HW1 1931   1.285   2.724   0.979
  640SOL    HW2 1932   1.397   2.632   1.054
  641SOL     OW 1933   1.209   2.387   0.275
  641SOL    HW1 1934   1.222   2.303   0.329
  641SOL    HW2 1935   1.180   2.461   0.335
  642SOL     OW 1936   0.307   2.075   1.231
  642SOL    HW1 1937   0.284   2.112   1.321
  642SOL    HW2 1938   0.277   1.980   1.225
  643SOL     OW 1939   0.037   3.172   1.282
  643SOL    HW1 1940   0.090   3.123   1.350
  643SOL    HW2 1941   0.059   3.270   1.287
  644SOL     OW 1942   0.732   2.496   1.064
  644SOL    HW1 1943   0.791   2.470   0.988
  644SOL    HW2 1944   0.704   2.592   1.053
  645SOL     OW 1945   1.728   2.797   1.854
  645SOL    HW1 1946   1.682   2.790   1.765
  645SOL    HW2 1947   1.666   2.841   1.920
  646SOL     OW 1948   0.307   1.925   0.618
  646SOL    HW1 1949   0.296   2.019   0.651
  646SOL    HW2 1950   0.302   1.862   0.695
  647SOL     OW 1951   1.622   2.229   0.374
  647SOL    HW1 1952   1.624   2.153   0.438
  647SOL    HW2 1953   1.574   2.306   0.414
  648SOL     OW 1954   1.023   2.628   0.966
  648SOL    HW1 1955   1.038   2.649   1.062
  648SOL    HW2 1956   0.993   2.533   0.957
  649SOL     OW 1957   0.980   3.435   1.700
  649SOL    HW1 1958   0.960   3.479   1.612
  649SOL    HW2 1959   1.019   3.344   1.684
  650SOL     OW 1960   1.859   3.380   1.605
  650SOL    HW1 1961   1.873   3.407   1.510
  650SOL    HW2 1962   1.942   3.402   1.658
  651SOL     OW 1963   0.350   2.760   1.804
  651SOL    HW1 1964   0.426   2.804   1.852
  651SOL    HW2 1965   0.385   2.713   1.722
  652SOL     OW 1966   1.540   2.136   0.125
  652SOL    HW1 1967   1.479   2.061   0.148
  652SOL    HW2 1968   1.562   2.188   0.208
  653SOL     OW 1969   1.303   2.700   0.042
  653SOL    HW1 1970   1.337   2.607   0.057
  653SOL    HW2 1971   1.321   2.727  -0.053
  654SOL     OW 1972   1.068   3.195   0.849
  654SOL    HW1 1973   1.075   3.111   0.794
  654SOL    HW2 1974   1.130   3.264   0.813
  655SOL     OW 1975   0.319   2.672   0.949
  655SOL    HW1 1976   0.412   2.708   0.954
  655SOL    HW2 1977   0.313   2.587   1.001
  656SOL     OW 1978   0.339   2.371   1.006
  656SOL    HW1 1979   0.287   2.288   0.989
  656SOL    HW2 1980   0.416   2.376   0.942
  657SOL     OW 1981   1.138   2.242   1.678
  657SOL    HW1 1982   1.093   2.305   1.742
  657SOL    HW2 1983   1.231   2.273   1.661
  658SOL     OW 1984   1.160   2.069   1.477
  658SOL    HW1 1985   1.160   2.133   1.554
  658SOL    HW2 1986   1.188   2.117   1.394
  659SOL     OW 1987   0.008   3.188   0.200
  659SOL    HW1 1988  -0.085   3.209   0.169
  659SOL    HW2 1989   0.018   3.089   0.213
  660SOL     OW 1990   0.088   3.663   0.927
  660SOL    HW1 1991   0.046   3.577   0.900
  660SOL    HW2 1992   0.182   3.666   0.893
  661SOL     OW 1993   0.504   3.430   0.910
  661SOL    HW1 1994   0.570   3.504   0.919
  661SOL    HW2 1995   0.548   3.351   0.868
  662SOL     OW 1996   1.002   2.658   1.238
  662SOL    HW1 1997   1.043   2.626   1.324
  662SOL    HW2 1998   0.906   2.631   1.235
  663SOL     OW 1999   0.040   2.406   1.114
  663SOL    HW1 2000   0.125   2.373   1.073
  663SOL    HW2 2001   0.053   2.421   1.212
  664SOL     OW 2002   0.189   2.382   1.722
  664SOL    HW1 2003   0.248   2.342   1.652
  664SOL    HW2 2004   0.131   2.453   1.681
  665SOL     OW 2005   1.369   2.812   1.660
  665SOL    HW1 2006   1.408   2.901   1.680
  665SOL    HW2 2007   1.379   2.792   1.563
  666SOL     OW 2008   0.815   2.434   0.325
  666SOL    HW1 2009   0.822   2.345   0.279
  666SOL    HW2 2010   0.721   2.468   0.317
  667SOL     OW 2011   1.657   2.466   1.206
  667SOL    HW1 2012   1.619   2.397   1.268
  667SOL    HW2 2013   1.739   2.430   1.162
  668SOL     OW 2014   0.252   3.426   1.744
  668SOL    HW1 2015   0.222   3.483   1.820
  668SOL    HW2 2016   0.245   3.329   1.770
  669SOL     OW 2017   0.671   2.326   1.269
  669SOL    HW1 2018   0.637   2.237   1.239
  669SOL    HW2 2019   0.697   2.380   1.189
  670SOL     OW 2020   0.930   3.540   1.465
  670SOL    HW1 2021   0.906   3.522   1.370
  670SOL    HW2 2022   0.960   3.634   1.475
  671SOL     OW 2023   0.473   2.362   0.191
  671SOL    HW1 2024   0.534   2.442   0.195
  671SOL    HW2 2025   0.378   2.393   0.198
  672SOL     OW 2026   0.159   2.999   1.466
  672SOL    HW1 2027   0.181   2.938   1.542
  672SOL    HW2 2028   0.169   2.950   1.380
  673SOL     OW 2029   1.347   2.921   1.234
  673SOL    HW1 2030   1.371   2.858   1.160
  673SOL    HW2 2031   1.257   2.961   1.216
  674SOL     OW 2032   1.302   2.717   0.309
  674SOL    HW1 2033   1.216   2.686   0.351
  674SOL    HW2 2034   1.298   2.703   0.210
  675SOL     OW 2035   1.759   3.609   1.154
  675SOL    HW1 2036   1.820   3.639   1.081
  675SOL    HW2 2037   1.721   3.520   1.132
  676SOL     OW 2038   1.252   3.593   1.128
  676SOL    HW1 2039   1.336   3.598   1.074
  676SOL    HW2 2040   1.229   3.497   1.146
  677SOL     OW 2041   0.083   3.120   1.022
  677SOL    HW1 2042   0.078   3.119   1.122
  677SOL    HW2 2043   0.000   3.079   0.984
  678SOL     OW 2044   0.688   3.524   1.716
  678SOL    HW1 2045   0.632   3.605   1.725
  678SOL    HW2 2046   0.740   3.528   1.630
  679SOL     OW 2047   0.903   1.948   0.133
  679SOL    HW1 2048   0.954   1.949   0.047
  679SOL    HW2 2049   0.959   1.906   0.204
  680SOL     OW 2050   1.726   1.997   0.523
  680SOL    HW1 2051   1.799   1.980   0.456
  680SOL    HW2 2052   1.695   1.910   0.561
  681SOL     OW 2053   1.388   3.435   0.477
  681SOL    HW1 2054   1.455   3.447   0.403
  681SOL    HW2 2055   1.348   3.524   0.500
  682SOL     OW 2056   0.130   3.656   1.851
  682SOL    HW1 2057   0.089   3.582   1.904
  682SOL    HW2 2058   0.194   3.707   1.909
  683SOL     OW 2059   1.280   2.789   0.672
  683SOL    HW1 2060   1.340   2.708   0.674
  683SOL    HW2 2061   1.320   2.858   0.612
  684SOL     OW 2062   0.830   3.135   1.422
  684SOL    HW1 2063   0.825   3.168   1.517
  684SOL    HW2 2064   0.744   3.154   1.376
  685SOL     OW 2065   0.672   3.478   0.154
  685SOL    HW1 2066   0.681   3.488   0.055
  685SOL    HW2 2067   0.632   3.389   0.175
  686SOL     OW 2068   1.650   3.582   1.394
  686SOL    HW1 2069   1.703   3.592   1.310
  686SOL    HW2 2070   1.623   3.672   1.428
  687SOL     OW 2071   1.841   2.037   0.963
  687SOL    HW1 2072   1.880   1.952   0.927
  687SOL    HW2 2073   1.743   2.039   0.944
  688SOL     OW 2074   0.263   2.188   0.720
  688SOL    HW1 2075   0.184   2.239   0.686
  688SOL    HW2 2076   0.254   2.173   0.818
  689SOL     OW 2077   1.194   3.474   0.031
  689SOL    HW1 2078   1.200   3.381   0.068
  689SOL    HW2 2079   1.135   3.474  -0.049
  690SOL     OW 2080   0.822   2.864   1.372
  690SOL    HW1 2081   0.862   2.863   1.280
  690SOL    HW2 2082   0.832   2.956   1.412
  691SOL     OW 2083   0.916   2.772   0.291
  691SOL    HW1 2084   0.979   2.810   0.223
  691SOL    HW2 2085   0.956   2.689   0.330
  692SOL     OW 2086   1.504   3.469   0.044
  692SOL    HW1 2087   1.412   3.506   0.051
  692SOL    HW2 2088   1.542   3.489  -0.046
  693SOL     OW 2089   0.372   3.150   1.490
  693SOL    HW1 2090   0.359   3.243   1.456
  693SOL    HW2 2091   0.288   3.098   1.477
  694SOL     OW 2092   1.614   3.154   1.289
  694SOL    HW1 2093   1.674   3.157   1.369
  694SOL    HW2 2094   1.539   3.218   1.302
  695SOL     OW 2095   1.039   2.960   0.696
  695SOL    HW1 2096   0.969   2.913   0.750
  695SOL    HW2 2097   1.098   2.892   0.653
  696SOL     OW 2098   1.014   2.098   0.971
  696SOL    HW1 2099   1.006   2.062   0.878
  696SOL    HW2 2100   1.012   2.022   1.036
  697SOL     OW 2101   0.590   3.349   0.491
  697SOL    HW1 2102   0.632   3.291   0.421
  697SOL    HW2 2103   0.546   3.428   0.447
  698SOL     OW 2104   1.709   2.247   1.381
  698SOL    HW1 2105   1.782   2.316   1.385
  698SOL    HW2 2106   1.737   2.172   1.322
  699SOL     OW 2107   0.255   3.210   0.290
  699SOL    HW1 2108   0.159   3.211   0.263
  699SOL    HW2 2109   0.267   3.263   0.374
  700SOL     OW 2110   0.105   2.875   1.726
  700SOL    HW1 2111   0.028   2.842   1.780
  700SOL    HW2 2112   0.190   2.845   1.768
  701SOL     OW 2113   0.672   2.065   1.489
  701SOL    HW1 2114   0.762   2.049   1.449
  701SOL    HW2 2115   0.680   2.070   1.588
  702SOL     OW 2116   0.075   2.207   0.033
  702SOL    HW1 2117  -0.017   2.179   0.004
  702SOL    HW2 2118   0.106   2.284  -0.023
  703SOL     OW 2119   1.440   2.718   1.398
  703SOL    HW1 2120   1.383   2.770   1.335
  703SOL    HW2 2121   1.536   2.730   1.374
  704SOL     OW 2122   0.072   2.028   0.318
  704SOL    HW1 2123   0.055   2.111   0.264
  704SOL    HW2 2124   0.162   1.991   0.296
  705SOL     OW 2125   1.183   3.197   0.119
  705SOL    HW1 2126   1.084   3.186   0.121
  705SOL    HW2 2127   1.217   3.212   0.212
  706SOL     OW 2128   0.613   2.704   1.431
  706SOL    HW1 2129   0.669   2.785   1.414
  706SOL    HW2 2130   0.672   2.624   1.434
  707SOL     OW 2131   1.493   3.629   0.959
  707SOL    HW1 2132   1.526   3.693   0.890
  707SOL    HW2 2133   1.559   3.623   1.034
  708SOL     OW 2134   0.716   2.427   1.708
  708SOL    HW1 2135   0.735   2.492   1.782
  708SOL    HW2 2136   0.776   2.347   1.717
  709SOL     OW 2137   1.450   3.082   1.633
  709SOL    HW1 2138   1.441   3.072   1.732
  709SOL    HW2 2139   1.546   3.075   1.607
  710SOL     OW 2140   0.390   3.603   1.560
  710SOL    HW1 2141   0.299   3.644   1.558
  710SOL    HW2 2142   0.383   3.509   1.592
  711SOL     OW 2143   1.674   2.745   1.254
  711SOL    HW1 2144   1.647   2.656   1.217
  711SOL    HW2 2145   1.675   2.813   1.181
  712SOL     OW 2146   1.225   2.187   0.449
  712SOL    HW1 2147   1.290   2.113   0.438
  712SOL    HW2 2148   1.245   2.237   0.533
  713SOL     OW 2149   0.594   2.607   0.652
  713SOL    HW1 2150   0.644   2.692   0.633
  713SOL    HW2 2151   0.506   2.609   0.604
  714SOL     OW 2152   1.777   2.204   1.642
  714SOL    HW1 2153   1.760   2.235   1.548
  714SOL    HW2 2154   1.693   2.167   1.680
  715SOL     OW 2155   1.730   2.796   1.517
  715SOL    HW1 2156   1.768   2.887   1.532
  715SOL    HW2 2157   1.722   2.779   1.418
  716SOL     OW 2158   0.859   3.236   0.016
  716SOL    HW1 2159   0.813   3.251   0.104
  716SOL    HW2 2160   0.903   3.321  -0.014
  717SOL     OW 2161   0.661   3.652   0.953
  717SOL    HW1 2162   0.615   3.740   0.940
  717SOL    HW2 2163   0.760   3.664   0.946
  718SOL     OW 2164   0.859   2.818   0.861
  718SOL    HW1 2165   0.913   2.749   0.909
  718SOL    HW2 2166   0.827   2.887   0.927
  719SOL     OW 2167   1.083   2.846   0.087
  719SOL    HW1 2168   1.060   2.899   0.005
  719SOL    HW2 2169   1.164   2.790   0.068
  720SOL     OW 2170   1.861   3.431   0.851
  720SOL    HW1 2171   1.790   3.419   0.781
  720SOL    HW2 2172   1.862   3.352   0.911
  721SOL     OW 2173   0.221   3.176   1.844
  721SOL    HW1 2174   0.156   3.103   1.823
  721SOL    HW2 2175   0.225   3.190   1.942
  722SOL     OW 2176   0.079   3.102   0.653
  722SOL    HW1 2177   0.078   3.055   0.741
  722SOL    HW2 2178   0.161   3.074   0.602
  723SOL     OW 2179   0.672   3.253   1.624
  723SOL    HW1 2180   0.594   3.203   1.662
  723SOL    HW2 2181   0.669   3.348   1.655
  724SOL     OW 2182   1.824   2.054   1.227
  724SOL    HW1 2183   1.820   1.964   1.271
  724SOL    HW2 2184   1.827   2.043   1.128
  725SOL     OW 2185   0.428   2.286   0.520
  725SOL    HW1 2186   0.458   2.214   0.458
  725SOL    HW2 2187   0.389   2.246   0.603
  726SOL     OW 2188   1.705   3.349   1.104
  726SOL    HW1 2189   1.612   3.324   1.077
  726SOL    HW2 2190   1.731   3.299   1.186
  727SOL     OW 2191   0.317   2.409   1.280
  727SOL    HW1 2192   0.355   2.350   1.352
  727SOL    HW2 2193   0.357   2.383   1.192
  728SOL     OW 2194   0.812   3.448   0.687
  728SOL    HW1 2195   0.844   3.458   0.593
  728SOL    HW2 2196   0.733   3.386   0.689
  729SOL     OW 2197   1.424   2.076   1.112
  729SOL    HW1 2198   1.476   2.011   1.167
  729SOL    HW2 2199   1.375   2.139   1.173
  730SOL     OW 2200   1.001   1.896   1.154
  730SOL    HW1 2201   0.938   1.824   1.123
  730SOL    HW2 2202   1.094   1.860   1.154
  731SOL     OW 2203   0.770   3.192   0.301
  731SOL    HW1 2204   0.724   3.105   0.318
  731SOL    HW2 2205   0.861   3.189   0.342
  732SOL     OW 2206   0.618   3.429   1.284
  732SOL    HW1 2207   0.613   3.511   1.341
  732SOL    HW2 2208   0.707   3.426   1.239
  733SOL     OW 2209   1.352   1.914   0.168
  733SOL    HW1 2210   1.387   1.873   0.084
  733SOL    HW2 2211   1.262   1.876   0.188
  734SOL     OW 2212   1.300   2.315   0.691
  734SOL    HW1 2213   1.241   2.395   0.695
  734SOL    HW2 2214   1.315   2.280   0.784
  735SOL     OW 2215   1.593   2.083   0.882
  735SOL    HW1 2216   1.509   2.082   0.936
  735SOL    HW2 2217   1.595   2.166   0.826
  736SOL     OW 2218   0.039   2.939   0.300
  736SOL    HW1 2219   0.138   2.928   0.291
  736SOL    HW2 2220  -0.001   2.853   0.332
  737SOL     OW 2221   0.875   3.508   0.337
  737SOL    HW1 2222   0.798   3.473   0.283
  737SOL    HW2 2223   0.843   3.579   0.399
  738SOL     OW 2224   0.230   2.490   1.975
  738SOL    HW1 2225   0.137   2.488   2.012
  738SOL    HW2 2226   0.231   2.451   1.883
  739SOL     OW 2227   0.225   2.137   2.858
  739SOL    HW1 2228   0.260   2.120   2.950
  739SOL    HW2 2229   0.137   2.092   2.846
  740SOL     OW 2230   0.019   2.230   2.509
  740SOL    HW1 2231  -0.063   2.273   2.548
  740SOL    HW2 2232  -0.009   2.157   2.446
  741SOL     OW 2233   0.569   3.137   3.027
  741SOL    HW1 2234   0.476   3.130   2.990
  741SOL    HW2 2235   0.580   3.226   3.071
  742SOL     OW 2236   1.555   3.373   2.565
  742SOL    HW1 2237   1.498   3.357   2.646
  742SOL    HW2 2238   1.496   3.383   2.485
  743SOL     OW 2239   1.135   2.565   2.579
  743SOL    HW1 2240   1.192   2.643   2.554
  743SOL    HW2 2241   1.075   2.591   2.655
  744SOL     OW 2242   1.755   2.469   2.093
  744SOL    HW1 2243   1.743   2.456   1.994
  744SOL    HW2 2244   1.725   2.388   2.142
  745SOL     OW 2245   0.768   3.006   2.885
  745SOL    HW1 2246   0.690   3.023   2.945
  745SOL    HW2 2247   0.802   3.093   2.849
  746SOL     OW 2248   0.850   2.660   3.685
  746SOL    HW1 2249   0.846   2.736   3.750
  746SOL    HW2 2250   0.872   2.696   3.594
  747SOL     OW 2251   0.685   2.874   2.527
  747SOL    HW1 2252   0.754   2.858   2.597
  747SOL    HW2 2253   0.612   2.931   2.565
  748SOL     OW 2254   0.686   3.023   3.665
  748SOL    HW1 2255   0.746   3.102   3.679
  748SOL    HW2 2256   0.600   3.054   3.624
  749SOL     OW 2257   0.335   3.297   2.923
  749SOL    HW1 2258   0.257   3.266   2.870
  749SOL    HW2 2259   0.393   3.355   2.866
  750SOL     OW 2260   1.460   3.367   3.201
  750SOL    HW1 2261   1.484   3.461   3.227
  750SOL    HW2 2262   1.444   3.313   3.283
  751SOL     OW 2263   0.438   2.254   3.361
  751SOL    HW1 2264   0.520   2.198   3.370
  751SOL    HW2 2265   0.357   2.196   3.365
  752SOL     OW 2266   1.603   2.309   2.599
  752SOL    HW1 2267   1.529   2.355   2.549
  752SOL    HW2 2268   1.654   2.377   2.652
  753SOL     OW 2269   0.231   3.575   2.345
  753SOL    HW1 2270   0.265   3.652   2.399
  753SOL    HW2 2271   0.275   3.575   2.255
  754SOL     OW 2272   1.127   3.203   3.552
  754SOL    HW1 2273   1.174   3.203   3.640
  754SOL    HW2 2274   1.079   3.116   3.541
  755SOL     OW 2275   0.230   3.296   2.400
  755SOL    HW1 2276   0.204   3.392   2.400
  755SOL    HW2 2277   0.159   3.242   2.445
  756SOL     OW 2278   0.240   2.953   2.748
  756SOL    HW1 2279   0.254   2.869   2.800
  756SOL    HW2 2280   0.185   3.017   2.803
  757SOL     OW 2281   0.620   3.648   3.301
  757SOL    HW1 2282   0.528   3.631   3.336
  757SOL    HW2 2283   0.648   3.740   3.327
  758SOL     OW 2284   0.606   2.826   1.985
  758SOL    HW1 2285   0.613   2.910   1.931
  758SOL    HW2 2286   0.652   2.839   2.073
  759SOL     OW 2287   1.594   1.976   3.342
  759SOL    HW1 2288   1.576   2.043   3.270
  759SOL    HW2 2289   1.591   2.022   3.431
  760SOL     OW 2290   0.122   2.505   2.425
  760SOL    HW1 2291   0.077   2.417   2.442
  760SOL    HW2 2292   0.121   2.559   2.509
  761SOL     OW 2293   1.842   3.629   2.221
  761SOL    HW1 2294   1.896   3.600   2.301
  761SOL    HW2 2295   1.872   3.719   2.192
  762SOL     OW 2296   0.027   3.458   1.979
  762SOL    HW1 2297   0.008   3.362   2.000
  762SOL    HW2 2298  -0.006   3.516   2.054
  763SOL     OW 2299   1.689   2.784   2.474
  763SOL    HW1 2300   1.784   2.755   2.482
  763SOL    HW2 2301   1.681   2.849   2.399
  764SOL     OW 2302   1.641   2.970   2.294
  764SOL    HW1 2303   1.727   2.972   2.242
  764SOL    HW2 2304   1.655   3.017   2.382
  765SOL     OW 2305   0.113   2.599   3.459
  765SOL    HW1 2306   0.201   2.586   3.504
  765SOL    HW2 2307   0.100   2.696   3.437
  766SOL     OW 2308   0.613   3.227   2.588
  766SOL    HW1 2309   0.564   3.140   2.597
  766SOL    HW2 2310   0.590   3.270   2.501
  767SOL     OW 2311   1.293   3.090   3.285
  767SOL    HW1 2312   1.330   3.017   3.227
  767SOL    HW2 2313   1.345   3.095   3.370
  768SOL     OW 2314   0.809   1.866   2.364
  768SOL    HW1 2315   0.849   1.957   2.355
  768SOL    HW2 2316   0.709   1.874   2.370
  769SOL     OW 2317   0.197   2.838   3.126
  769SOL    HW1 2318   0.286   2.793   3.112
  769SOL    HW2 2319   0.124   2.773   3.107
  770SOL     OW 2320   1.525   2.861   2.052
  770SOL    HW1 2321   1.462   2.785   2.065
  770SOL    HW2 2322   1.573   2.879   2.138
  771SOL     OW 2323   1.187   3.654   3.478
  771SOL    HW1 2324   1.211   3.714   3.402
  771SOL    HW2 2325   1.194   3.559   3.448
  772SOL     OW 2326   0.317   2.113   3.663
  772SOL    HW1 2327   0.388   2.184   3.669
  772SOL    HW2 2328   0.229   2.152   3.691
  773SOL     OW 2329   1.466   3.279   2.815
  773SOL    HW1 2330   1.407   3.285   2.895
  773SOL    HW2 2331   1.451   3.191   2.769
  774SOL     OW 2332   1.667   3.576   2.434
  774SOL    HW1 2333   1.626   3.553   2.346
  774SOL    HW2 2334   1.649   3.502   2.499
  775SOL     OW 2335   0.598   2.591   2.132
  775SOL    HW1 2336   0.622   2.660   2.064
  775SOL    HW2 2337   0.520   2.624   2.186
  776SOL     OW 2338   1.281   2.207   2.806
  776SOL    HW1 2339   1.195   2.157   2.793
  776SOL    HW2 2340   1.343   2.153   2.862
  777SOL     OW 2341   1.576   3.524   2.169
  777SOL    HW1 2342   1.665   3.570   2.172
  777SOL    HW2 2343   1.555   3.500   2.074
  778SOL     OW 2344   0.807   2.467   3.327
  778SOL    HW1 2345   0.760   2.464   3.416
  778SOL    HW2 2346   0.756   2.412   3.261
  779SOL     OW 2347   1.394   2.331   3.536
  779SOL    HW1 2348   1.374   2.374   3.624
  779SOL    HW2 2349   1.472   2.269   3.545
  780SOL     OW 2350   0.973   2.752   3.434
  780SOL    HW1 2351   1.019   2.668   3.405
  780SOL    HW2 2352   0.917   2.786   3.359
  781SOL     OW 2353   0.991   2.272   3.104
  781SOL    HW1 2354   0.914   2.306   3.158
  781SOL    HW2 2355   0.957   2.221   3.025
  782SOL     OW 2356   1.041   2.563   2.291
  782SOL    HW1 2357   1.067   2.559   2.387
  782SOL    HW2 2358   0.956   2.512   2.277
  783SOL     OW 2359   0.076   2.673   2.651
  783SOL    HW1 2360   0.175   2.661   2.660
  783SOL    HW2 2361   0.052   2.768   2.672
  784SOL     OW 2362   0.130   3.683   3.433
  784SOL    HW1 2363   0.120   3.668   3.532
  784SOL    HW2 2364   0.044   3.719   3.397
  785SOL     OW 2365   0.865   2.210   2.057
  785SOL    HW1 2366   0.924   2.273   2.008
  785SOL    HW2 2367   0.884   2.116   2.028
  786SOL     OW 2368   1.719   2.447   3.693
  786SOL    HW1 2369   1.693   2.536   3.657
  786SOL    HW2 2370   1.717   2.379   3.620
  787SOL     OW 2371   1.362   3.006   2.407
  787SOL    HW1 2372   1.445   2.977   2.359
  787SOL    HW2 2373   1.313   3.073   2.351
  788SOL     OW 2374   0.550   2.058   2.747
  788SOL    HW1 2375   0.545   2.053   2.847
  788SOL    HW2 2376   0.552   2.154   2.718
  789SOL     OW 2377   1.008   3.318   2.339
  789SOL    HW1 2378   0.962   3.390   2.287
  789SOL    HW2 2379   1.004   3.338   2.437
  790SOL     OW 2380   0.351   3.663   2.715
  790SOL    HW1 2381   0.401   3.577   2.721
  790SOL    HW2 2382   0.416   3.740   2.712
  791SOL     OW 2383   1.795   2.928   2.735
  791SOL    HW1 2384   1.733   2.913   2.659
  791SOL    HW2 2385   1.743   2.939   2.820
  792SOL     OW 2386   1.227   3.412   3.368
  792SOL    HW1 2387   1.233   3.335   3.432
  792SOL    HW2 2388   1.175   3.386   3.288
  793SOL     OW 2389   0.321   2.805   2.104
  793SOL    HW1 2390   0.403   2.844   2.062
  793SOL    HW2 2391   0.294   2.723   2.055
  794SOL     OW 2392   1.458   2.597   2.590
  794SOL    HW1 2393   1.453   2.532   2.665
  794SOL    HW2 2394   1.538   2.656   2.603
  795SOL     OW 2395   0.461   3.128   3.589
  795SOL    HW1 2396   0.411   3.129   3.503
  795SOL    HW2 2397   0.398   3.110   3.665
  796SOL     OW 2398   1.111   3.638   2.099
  796SOL    HW1 2399   1.051   3.576   2.149
  796SOL    HW2 2400   1.142   3.594   2.014
  797SOL     OW 2401   0.202   2.147   3.360
  797SOL    HW1 2402   0.122   2.207   3.347
  797SOL    HW2 2403   0.192   2.098   3.446
  798SOL     OW 2404   1.632   3.239   1.943
  798SOL    HW1 2405   1.600   3.333   1.933
  798SOL    HW2 2406   1.556   3.176   1.931
  799SOL     OW 2407   0.464   3.605   2.185
  799SOL    HW1 2408   0.497   3.644   2.271
  799SOL    HW2 2409   0.540   3.598   2.120
  800SOL     OW 2410   1.400   1.969   2.288
  800SOL    HW1 2411   1.376   1.932   2.198
  800SOL    HW2 2412   1.499   1.985   2.292
  801SOL     OW 2413   0.249   3.647   3.103
  801SOL    HW1 2414   0.306   3.582   3.153
  801SOL    HW2 2415   0.233   3.614   3.010
  802SOL     OW 2416   0.940   3.560   2.766
  802SOL    HW1 2417   1.020   3.503   2.787
  802SOL    HW2 2418   0.891   3.520   2.689
  803SOL     OW 2419   0.382   2.562   2.342
  803SOL    HW1 2420   0.427   2.472   2.339
  803SOL    HW2 2421   0.288   2.551   2.375
  804SOL     OW 2422   1.547   2.084   3.591
  804SOL    HW1 2423   1.542   2.121   3.683
  804SOL    HW2 2424   1.475   2.015   3.579
  805SOL     OW 2425   0.614   1.984   1.979
  805SOL    HW1 2426   0.712   1.962   1.986
  805SOL    HW2 2427   0.583   1.967   1.886
  806SOL     OW 2428   0.781   2.126   3.611
  806SOL    HW1 2429   0.848   2.065   3.654
  806SOL    HW2 2430   0.708   2.145   3.676
  807SOL     OW 2431   0.888   3.376   3.057
  807SOL    HW1 2432   0.865   3.351   2.963
  807SOL    HW2 2433   0.949   3.307   3.096
  808SOL     OW 2434   1.351   2.452   3.295
  808SOL    HW1 2435   1.379   2.409   3.380
  808SOL    HW2 2436   1.376   2.548   3.296
  809SOL     OW 2437   0.803   3.264   2.786
  809SOL    HW1 2438   0.893   3.278   2.744
  809SOL    HW2 2439   0.732   3.266   2.715
  810SOL     OW 2440   0.922   2.365   2.761
  810SOL    HW1 2441   0.897   2.356   2.665
  810SOL    HW2 2442   0.970   2.283   2.792
  811SOL     OW 2443   0.539   1.926   2.374
  811SOL    HW1 2444   0.458   1.927   2.432
  811SOL    HW2 2445   0.542   2.009   2.319
  812SOL     OW 2446   1.434   3.050   1.903
  812SOL    HW1 2447   1.466   2.974   1.960
  812SOL    HW2 2448   1.342   3.077   1.933
  813SOL     OW 2449   0.297   1.897   2.033
  813SOL    HW1 2450   0.346   1.981   2.012
  813SOL    HW2 2451   0.359   1.832   2.078
  814SOL     OW 2452   0.935   2.098   2.342
  814SOL    HW1 2453   0.887   2.139   2.264
  814SOL    HW2 2454   1.034   2.096   2.323
  815SOL     OW 2455   1.076   2.545   3.326
  815SOL    HW1 2456   0.996   2.484   3.329
  815SOL    HW2 2457   1.157   2.492   3.302
  816SOL     OW 2458   1.227   3.432   2.655
  816SOL    HW1 2459   1.248   3.506   2.590
  816SOL    HW2 2460   1.295   3.432   2.728
  817SOL     OW 2461   0.459   3.014   2.603
  817SOL    HW1 2462   0.388   2.987   2.668
  817SOL    HW2 2463   0.433   2.986   2.510
  818SOL     OW 2464   1.271   3.659   2.453
  818SOL    HW1 2465   1.315   3.723   2.389
  818SOL    HW2 2466   1.221   3.711   2.523
  819SOL     OW 2467   1.032   2.411   1.878
  819SOL    HW1 2468   0.991   2.493   1.839
  819SOL    HW2 2469   1.096   2.437   1.951
  820SOL     OW 2470   0.078   2.418   3.248
  820SOL    HW1 2471   0.170   2.417   3.207
  820SOL    HW2 2472   0.072   2.492   3.315
  821SOL     OW 2473   0.561   2.084   3.009
  821SOL    HW1 2474   0.599   2.000   3.046
  821SOL    HW2 2475   0.473   2.103   3.053
  822SOL     OW 2476   0.866   2.316   2.504
  822SOL    HW1 2477   0.834   2.388   2.442
  822SOL    HW2 2478   0.890   2.235   2.451
  823SOL     OW 2479   1.017   1.901   2.615
  823SOL    HW1 2480   0.945   1.906   2.546
  823SOL    HW2 2481   0.993   1.832   2.684
  824SOL     OW 2482   1.429   3.035   2.729
  824SOL    HW1 2483   1.374   2.951   2.722
  824SOL    HW2 2484   1.455   3.064   2.637
  825SOL     OW 2485   1.466   2.452   2.854
  825SOL    HW1 2486   1.436   2.357   2.861
  825SOL    HW2 2487   1.539   2.468   2.920
  826SOL     OW 2488   1.857   2.695   2.239
  826SOL    HW1 2489   1.899   2.631   2.303
  826SOL    HW2 2490   1.819   2.644   2.161
  827SOL     OW 2491   0.488   3.247   2.036
  827SOL    HW1 2492   0.401   3.232   2.083
  827SOL    HW2 2493   0.471   3.273   1.941
  828SOL     OW 2494   1.664   3.142   2.519
  828SOL    HW1 2495   1.763   3.150   2.533
  828SOL    HW2 2496   1.619   3.226   2.550
  829SOL     OW 2497   1.390   2.437   1.940
  829SOL    HW1 2498   1.336   2.416   2.021
  829SOL    HW2 2499   1.481   2.396   1.949
  830SOL     OW 2500   0.527   2.118   2.190
  830SOL    HW1 2501   0.554   2.059   2.115
  830SOL    HW2 2502   0.527   2.213   2.159
  831SOL     OW 2503   1.754   3.085   3.450
  831SOL    HW1 2504   1.845   3.046   3.437
  831SOL    HW2 2505   1.762   3.181   3.474
  832SOL     OW 2506   1.064   3.209   3.202
  832SOL    HW1 2507   0.984   3.186   3.257
  832SOL    HW2 2508   1.147   3.183   3.251
  833SOL     OW 2509   1.592   3.491   3.487
  833SOL    HW1 2510   1.619   3.525   3.397
  833SOL    HW2 2511   1.671   3.453   3.533
  834SOL     OW 2512   1.111   3.057   2.962
  834SOL    HW1 2513   1.071   3.101   3.043
  834SOL    HW2 2514   1.070   3.094   2.879
  835SOL     OW 2515   1.638   2.961   2.941
  835SOL    HW1 2516   1.643   3.042   3.000
  835SOL    HW2 2517   1.552   2.963   2.890
  836SOL     OW 2518   0.915   1.951   3.264
  836SOL    HW1 2519   0.940   1.931   3.169
  836SOL    HW2 2520   0.987   2.007   3.306
  837SOL     OW 2521   0.980   2.978   3.581
  837SOL    HW1 2522   0.881   2.984   3.591
  837SOL    HW2 2523   1.003   2.898   3.525
  838SOL     OW 2524   0.705   2.912   2.230
  838SOL    HW1 2525   0.691   2.919   2.329
  838SOL    HW2 2526   0.789   2.861   2.212
  839SOL     OW 2527   0.410   2.675   3.113
  839SOL    HW1 2528   0.496   2.687   3.163
  839SOL    HW2 2529   0.368   2.588   3.140
  840SOL     OW 2530   1.274   2.248   3.124
  840SOL    HW1 2531   1.295   2.322   3.188
  840SOL    HW2 2532   1.185   2.265   3.081
  841SOL     OW 2533   0.064   3.426   3.193
  841SOL    HW1 2534   0.018   3.508   3.159
  841SOL    HW2 2535   0.162   3.445   3.202
  842SOL     OW 2536   0.367   2.962   2.363
  842SOL    HW1 2537   0.360   3.045   2.307
  842SOL    HW2 2538   0.371   2.882   2.303
  843SOL     OW 2539   0.566   2.399   2.727
  843SOL    HW1 2540   0.578   2.465   2.653
  843SOL    HW2 2541   0.612   2.433   2.810
  844SOL     OW 2542   1.252   3.210   2.250
  844SOL    HW1 2543   1.302   3.287   2.290
  844SOL    HW2 2544   1.157   3.212   2.282
  845SOL     OW 2545   1.272   3.307   3.004
  845SOL    HW1 2546   1.319   3.320   3.091
  845SOL    HW2 2547   1.206   3.233   3.013
  846SOL     OW 2548   1.582   2.501   2.334
  846SOL    HW1 2549   1.551   2.562   2.407
  846SOL    HW2 2550   1.632   2.553   2.265
  847SOL     OW 2551   0.354   3.372   3.191
  847SOL    HW1 2552   0.333   3.328   3.104
  847SOL    HW2 2553   0.451   3.398   3.194
  848SOL     OW 2554   0.402   2.613   3.460
  848SOL    HW1 2555   0.470   2.668   3.413
  848SOL    HW2 2556   0.442   2.525   3.487
  849SOL     OW 2557   1.587   2.641   3.532
  849SOL    HW1 2558   1.495   2.679   3.527
  849SOL    HW2 2559   1.647   2.688   3.467
  850SOL     OW 2560   1.013   1.967   3.632
  850SOL    HW1 2561   1.019   2.052   3.580
  850SOL    HW2 2562   1.045   1.891   3.575
  851SOL     OW 2563   0.504   1.912   3.602
  851SOL    HW1 2564   0.462   1.855   3.532
  851SOL    HW2 2565   0.438   1.981   3.634
  852SOL     OW 2566   0.573   2.732   2.891
  852SOL    HW1 2567   0.617   2.821   2.882
  852SOL    HW2 2568   0.510   2.732   2.968
  853SOL     OW 2569   1.360   2.724   2.907
  853SOL    HW1 2570   1.285   2.724   2.841
  853SOL    HW2 2571   1.397   2.632   2.916
  854SOL     OW 2572   1.209   2.387   2.137
  854SOL    HW1 2573   1.222   2.303   2.191
  854SOL    HW2 2574   1.180   2.461   2.197
  855SOL     OW 2575   0.307   2.075   3.093
  855SOL    HW1 2576   0.284   2.112   3.183
  855SOL    HW2 2577   0.277   1.980   3.087
  856SOL     OW 2578   0.037   3.172   3.144
  856SOL    HW1 2579   0.090   3.123   3.212
  856SOL    HW2 2580   0.059   3.270   3.149
  857SOL     OW 2581   0.732   2.496   2.926
  857SOL    HW1 2582   0.791   2.470   2.850
  857SOL    HW2 2583   0.704   2.592   2.915
  858SOL     OW 2584   1.728   2.797   3.716
  858SOL    HW1 2585   1.682   2.790   3.627
  858SOL    HW2 2586   1.666   2.841   3.782
  859SOL     OW 2587   0.307   1.925   2.480
  859SOL    HW1 2588   0.296   2.019   2.513
  859SOL    HW2 2589   0.302   1.862   2.557
  860SOL     OW 2590   1.622   2.229   2.236
  860SOL    HW1 2591   1.624   2.153   2.300
  860SOL    HW2 2592   1.574   2.306   2.276
  861SOL     OW 2593   1.023   2.628   2.828
  861SOL    HW1 2594   1.038   2.649   2.924
  861SOL    HW2 2595   0.993   2.533   2.819
  862SOL     OW 2596   0.980   3.435   3.562
  862SOL    HW1 2597   0.960   3.479   3.474
  862SOL    HW2 2598   1.019   3.344   3.546
  863SOL     OW 2599   1.859   3.380   3.467
  863SOL    HW1 2600   1.873   3.407   3.372
  863SOL    HW2 2601   1.942   3.402   3.520
  864SOL     OW 2602   0.350   2.760   3.666
  864SOL    HW1 2603   0.426   2.804   3.714
  864SOL    HW2 2604   0.385   2.713   3.584
  865SOL     OW 2605   1.540   2.136   1.987
  865SOL    HW1 2606   1.479   2.061   2.010
  865SOL    HW2 2607   1.562   2.188   2.070
  866SOL     OW 2608   1.303   2.700   1.904
  866SOL    HW1 2609   1.337   2.607   1.919
  866SOL    HW2 2610   1.321   2.727   1.809
  867SOL     OW 2611   1.068   3.195   2.711
  867SOL    HW1 2612   1.075   3.111   2.656
  867SOL    HW2 2613   1.130   3.264   2.675
  868SOL     OW 2614   0.319   2.672   2.811
  868SOL    HW1 2615   0.412   2.708   2.816
  868SOL    HW2 2616   0.313   2.587   2.863
  869SOL     OW 2617   0.339   2.371   2.868
  869SOL    HW1 2618   0.287   2.288   2.851
  869SOL    HW2 2619   0.416   2.376   2.804
  870SOL     OW 2620   1.138   2.242   3.540
  870SOL    HW1 2621   1.093   2.305   3.604
  870SOL    HW2 2622   1.231   2.273   3.523
  871SOL     OW 2623   1.160   2.069   3.339
  871SOL    HW1 2624   1.160   2.133   3.416
  871SOL    HW2 2625   1.188   2.117   3.256
  872SOL     OW 2626   0.008   3.188   2.062
  872SOL    HW1 2627  -0.085   3.209   2.031
  872SOL    HW2 2628   0.018   3.089   2.075
  873SOL     OW 2629   0.088   3.663   2.789
  873SOL    HW1 2630   0.046   3.577   2.762
  873SOL    HW2 2631   0.182   3.666   2.755
  874SOL     OW 2632   0.504   3.430   2.772
  874SOL    HW1 2633   0.570   3.504   2.781
  874SOL    HW2 2634   0.548   3.351   2.730
  875SOL     OW 2635   1.002   2.658   3.100
  875SOL    HW1 2636   1.043   2.626   3.186
  875SOL    HW2 2637   0.906   2.631   3.097
  876SOL     OW 2638   0.040   2.406   2.976
  876SOL    HW1 2639   0.125   2.373   2.935
  876SOL    HW2 2640   0.053   2.421   3.074
  877SOL     OW 2641   0.189   2.382   3.584
  877SOL    HW1 2642   0.248   2.342   3.514
  877SOL    HW2 2643   0.131   2.453   3.543
  878SOL     OW 2644   1.369   2.812   3.522
  878SOL    HW1 2645   1.408   2.901   3.542
  878SOL    HW2 2646   1.379   2.792   3.425
  879SOL     OW 2647   0.815   2.434   2.187
  879SOL    HW1 2648   0.822   2.345   2.141
  879SOL    HW2 2649   0.721   2.468   2.179
  880SOL     OW 2650   1.657   2.466   3.068
  880SOL    HW1 2651   1.619   2.397   3.130
  880SOL    HW2 2652   1.739   2.430   3.024
  881SOL     OW 2653   0.252   3.426   3.606
  881SOL    HW1 2654   0.222   3.483   3.682
  881SOL    HW2 2655   0.245   3.329   3.632
  882SOL     OW 2656   0.671   2.326   3.131
  882SOL    HW1 2657   0.637   2.237   3.101
  882SOL    HW2 2658   0.697   2.380   3.051
  883SOL     OW 2659   0.930   3.540   3.327
  883SOL    HW1 2660   0.906   3.522   3.232
  883SOL    HW2 2661   0.960   3.634   3.337
  884SOL     OW 2662   0.473   2.362   2.053
  884SOL    HW1 2663   0.534   2.442   2.057
  884SOL    HW2 2664   0.378   2.393   2.060
  885SOL     OW 2665   0.159   2.999   3.328
  885SOL    HW1 2666   0.181   2.938   3.404
  885SOL    HW2 2667   0.169   2.950   3.242
  886SOL     OW 2668   1.347   2.921   3.096
  886SOL    HW1 2669   1.371   2.858   3.022
  886SOL    HW2 2670   1.257   2.961   3.078
  887SOL     OW 2671   1.302   2.717   2.171
  887SOL    HW1 2672   1.216   2.686   2.213
  887SOL    HW2 2673   1.298   2.703   2.072
  888SOL     OW 2674   1.759   3.609   3.016
  888SOL    HW1 2675   1.820   3.639   2.943
  888SOL    HW2 2676   1.721   3.520   2.994
  889SOL     OW 2677   1.252   3.593   2.990
  889SOL    HW1 2678   1.336   3.598   2.936
  889SOL    HW2 2679   1.229   3.497   3.008
  890SOL     OW 2680   0.083   3.120   2.884
  890SOL    HW1 2681   0.078   3.119   2.984
  890SOL    HW2 2682   0.000   3.079   2.846
  891SOL     OW 2683   0.688   3.524   3.578
  891SOL    HW1 2684   0.632   3.605   3.587
  891SOL    HW2 2685   0.740   3.528   3.492
  892SOL     OW 2686   1.726   1.997   2.385
  892SOL    HW1 2687   1.799   1.980   2.318
  892SOL    HW2 2688   1.695   1.910   2.423
  893SOL     OW 2689   1.388   3.435   2.339
  893SOL    HW1 2690   1.455   3.447   2.265
  893SOL    HW2 2691   1.348   3.524   2.362
  894SOL     OW 2692   0.130   3.656   3.713
  894SOL    HW1 2693   0.089   3.582   3.766
  894SOL    HW2 2694   0.194   3.707   3.771
  895SOL     OW 2695   1.280   2.789   2.534
  895SOL    HW1 2696   1.340   2.708   2.536
  895SOL    HW2 2697   1.320   2.858   2.474
  896SOL     OW 2698   0.830   3.135   3.284
  896SOL    HW1 2699   0.825   3.168   3.379
  896SOL    HW2 2700   0.744   3.154   3.238
  897SOL     OW 2701   0.672   3.478   2.016
  897SOL    HW1 2702   0.681   3.488   1.917
  897SOL    HW2 2703   0.632   3.389   2.037
  898SOL     OW 2704   1.650   3.582   3.256
  898SOL    HW1 2705   1.703   3.592   3.172
  898SOL    HW2 2706   1.623   3.672   3.290
  899SOL     OW 2707   1.841   2.037   2.825
  899SOL    HW1 2708   1.880   1.952   2.789
  899SOL    HW2 2709   1.743   2.039   2.806
  900SOL     OW 2710   0.263   2.188   2.582
  900SOL    HW1 2711   0.184   2.239   2.548
  900SOL    HW2 2712   0.254   2.173   2.680
  901SOL     OW 2713   1.194   3.474   1.893
  901SOL    HW1 2714   1.200   3.381   1.930
  901SOL    HW2 2715   1.135   3.474   1.813
  902SOL     OW 2716   0.822   2.864   3.234
  902SOL    HW1 2717   0.862   2.863   3.142
  902SOL    HW2 2718   0.832   2.956   3.274
  903SOL     OW 2719   0.916   2.772   2.153
  903SOL    HW1 2720   0.979   2.810   2.085
  903SOL    HW2 2721   0.956   2.689   2.192
  904SOL     OW 2722   1.504   3.469   1.906
  904SOL    HW1 2723   1.412   3.506   1.913
  904SOL    HW2 2724   1.542   3.489   1.816
  905SOL     OW 2725   0.372   3.150   3.352
  905SOL    HW1 2726   0.359   3.243   3.318
  905SOL    HW2 2727   0.288   3.098   3.339
  906SOL     OW 2728   1.614   3.154   3.151
  906SOL    HW1 2729   1.674   3.157   3.231
  906SOL    HW2 2730   1.539   3.218   3.164
  907SOL     OW 2731   1.039   2.960   2.558
  907SOL    HW1 2732   0.969   2.913   2.612
  907SOL    HW2 2733   1.098   2.892   2.515
  908SOL     OW 2734   1.014   2.098   2.833
  908SOL    HW1 2735   1.006   2.062   2.740
  908SOL    HW2 2736   1.012   2.022   2.898
  909SOL     OW 2737   0.590   3.349   2.353
  909SOL    HW1 2738   0.632   3.291   2.283
  909SOL    HW2 2739   0.546   3.428   2.309
  910SOL     OW 2740   1.709   2.247   3.243
  910SOL    HW1 2741   1.782   2.316   3.247
  910SOL    HW2 2742   1.737   2.172   3.184
  911SOL     OW 2743   0.255   3.210   2.152
  911SOL    HW1 2744   0.159   3.211   2.125
  911SOL    HW2 2745   0.267   3.263   2.236
  912SOL     OW 2746   0.105   2.875   3.588
  912SOL    HW1 2747   0.028   2.842   3.642
  912SOL    HW2 2748   0.190   2.845   3.630
  913SOL     OW 2749   0.672   2.065   3.351
  913SOL    HW1 2750   0.762   2.049   3.311
  913SOL    HW2 2751   0.680   2.070   3.450
  914SOL     OW 2752   0.075   2.207   1.895
  914SOL    HW1 2753  -0.017   2.179   1.866
  914SOL    HW2 2754   0.106   2.284   1.839
  915SOL     OW 2755   1.440   2.718   3.260
  915SOL    HW1 2756   1.383   2.770   3.197
  915SOL    HW2 2757   1.536   2.730   3.236
  916SOL     OW 2758   0.072   2.028   2.180
  916SOL    HW1 2759   0.055   2.111   2.126
  916SOL    HW2 2760   0.162   1.991   2.158
  917SOL     OW 2761   1.183   3.197   1.981
  917SOL    HW1 2762   1.084   3.186   1.983
  917SOL    HW2 2763   1.217   3.212   2.074
  918SOL     OW 2764   0.613   2.704   3.293
  918SOL    HW1 2765   0.669   2.785   3.276
  918SOL    HW2 2766   0.672   2.624   3.296
  919SOL     OW 2767   1.493   3.629   2.821
  919SOL    HW1 2768   1.526   3.693   2.752
  919SOL    HW2 2769   1.559   3.623   2.896
  920SOL     OW 2770   0.716   2.427   3.570
  920SOL    HW1 2771   0.735   2.492   3.644
  920SOL    HW2 2772   0.776   2.347   3.579
  921SOL     OW 2773   1.450   3.082   3.495
  921SOL    HW1 2774   1.441   3.072   3.594
  921SOL    HW2 2775   1.546   3.075   3.469
  922SOL     OW 2776   0.390   3.603   3.422
  922SOL    HW1 2777   0.299   3.644   3.420
  922SOL    HW2 2778   0.383   3.509   3.454
  923SOL     OW 2779   1.674   2.745   3.116
  923SOL    HW1 2780   1.647   2.656   3.079
  923SOL    HW2 2781   1.675   2.813   3.043
  924SOL     OW 2782   1.225   2.187   2.311
  924SOL    HW1 2783   1.290   2.113   2.300
  924SOL    HW2 2784   1.245   2.237   2.395
  925SOL     OW 2785   0.594   2.607   2.514
  925SOL    HW1 2786   0.644   2.692   2.495
  925SOL    HW2 2787   0.506   2.609   2.466
  926SOL     OW 2788   1.777   2.204   3.504
  926SOL    HW1 2789   1.760   2.235   3.410
  926SOL    HW2 2790   1.693   2.167   3.542
  927SOL     OW 2791   1.730   2.796   3.379
  927SOL    HW1 2792   1.768   2.887   3.394
  927SOL    HW2 2793   1.722   2.779   3.280
  928SOL     OW 2794   0.859   3.236   1.878
  928SOL    HW1 2795   0.813   3.251   1.966
  928SOL    HW2 2796   0.903   3.321   1.848
  929SOL     OW 2797   0.661   3.652   2.815
  929SOL    HW1 2798   0.615   3.740   2.802
  929SOL    HW2 2799   0.760   3.664   2.808
  930SOL     OW 2800   0.859   2.818   2.723
  930SOL    HW1 2801   0.913   2.749   2.771
  930SOL    HW2 2802   0.827   2.887   2.789
  931SOL     OW 2803   1.083   2.846   1.949
  931SOL    HW1 2804   1.060   2.899   1.867
  931SOL    HW2 2805   1.164   2.790   1.930
  932SOL     OW 2806   1.861   3.431   2.713
  932SOL    HW1 2807   1.790   3.419   2.643
  932SOL    HW2 2808   1.862   3.352   2.773
  933SOL     OW 2809   0.221   3.176   3.706
  933SOL    HW1 2810   0.156   3.103   3.685
  933SOL    HW2 2811   0.225   3.190   3.804
  934SOL     OW 2812   0.079   3.102   2.515
  934SOL    HW1 2813   0.078   3.055   2.603
  934SOL    HW2 2814   0.161   3.074   2.464
  935SOL     OW 2815   0.672   3.253   3.486
  935SOL    HW1 2816   0.594   3.203   3.524
  935SOL    HW2 2817   0.669   3.348   3.517
  936SOL     OW 2818   1.824   2.054   3.089
  936SOL    HW1 2819   1.820   1.964   3.133
  936SOL    HW2 2820   1.827   2.043   2.990
  937SOL     OW 2821   0.428   2.286   2.382
  937SOL    HW1 2822   0.458   2.214   2.320
  937SOL    HW2 2823   0.389   2.246   2.465
  938SOL     OW 2824   1.705   3.349   2.966
  938SOL    HW1 2825   1.612   3.324   2.939
  938SOL    HW2 2826   1.731   3.299   3.048
  939SOL     OW 2827   0.317   2.409   3.142
  939SOL    HW1 2828   0.355   2.350   3.214
  939SOL    HW2 2829   0.357   2.383   3.054
  940SOL     OW 2830   0.812   3.448   2.549
  940SOL    HW1 2831   0.844   3.458   2.455
  940SOL    HW2 2832   0.733   3.386   2.551
  941SOL     OW 2833   1.424   2.076   2.974
  941SOL    HW1 2834   1.476   2.011   3.029
  941SOL    HW2 2835   1.375   2.139   3.035
  942SOL     OW 2836   1.001   1.896   3.016
  942SOL    HW1 2837   0.938   1.824   2.985
  942SOL    HW2 2838   1.094   1.860   3.016
  943SOL     OW 2839   0.770   3.192   2.163
  943SOL    HW1 2840   0.724   3.105   2.180
  943SOL    HW2 2841   0.861   3.189   2.204
  944SOL     OW 2842   0.618   3.429   3.146
  944SOL    HW1 2843   0.613   3.511   3.203
  944SOL    HW2 2844   0.707   3.426   3.101
  945SOL     OW 2845   1.352   1.914   2.030
  945SOL    HW1 2846   1.387   1.873   1.946
  945SOL    HW2 2847   1.262   1.876   2.050
  946SOL     OW 2848   1.300   2.315   2.553
  946SOL    HW1 2849   1.241   2.395   2.557
  946SOL    HW2 2850   1.315   2.280   2.646
  947SOL     OW 2851   1.593   2.083   2.744
  947SOL    HW1 2852   1.509   2.082   2.798
  947SOL    HW2 2853   1.595   2.166   2.688
  948SOL     OW 2854   0.039   2.939   2.162
  948SOL    HW1 2855   0.138   2.928   2.153
  948SOL    HW2 2856  -0.001   2.853   2.194
  949SOL     OW 2857   0.875   3.508   2.199
  949SOL    HW1 2858   0.798   3.473   2.145
  949SOL    HW2 2859   0.843   3.579   2.261
  950SOL     OW 2860   0.230   2.490   3.837
  950SOL    HW1 2861   0.137   2.488   3.874
  950SOL    HW2 2862   0.231   2.451   3.745
  951SOL     OW 2863   0.019   2.230   4.371
  951SOL    HW1 2864  -0.063   2.273   4.410
  951SOL    HW2 2865  -0.009   2.157   4.308
  952SOL     OW 2866   1.555   3.373   4.427
  952SOL    HW1 2867   1.498   3.357   4.508
  952SOL    HW2 2868   1.496   3.383   4.347
  953SOL     OW 2869   1.135   2.565   4.441
  953SOL    HW1 2870   1.192   2.643   4.416
  953SOL    HW2 2871   1.075   2.591   4.517
  954SOL     OW 2872   1.755   2.469   3.955
  954SOL    HW1 2873   1.743   2.456   3.856
  954SOL    HW2 2874   1.725   2.388   4.004
  955SOL     OW 2875   0.768   3.006   4.747
  955SOL    HW1 2876   0.690   3.023   4.807
  955SOL    HW2 2877   0.802   3.093   4.711
  956SOL     OW 2878   0.685   2.874   4.389
  956SOL    HW1 2879   0.754   2.858   4.459
  956SOL    HW2 2880   0.612   2.931   4.427
  957SOL     OW 2881   1.603   2.309   4.461
  957SOL    HW1 2882   1.529   2.355   4.411
  957SOL    HW2 2883   1.654   2.377   4.514
  958SOL     OW 2884   0.231   3.575   4.207
  958SOL    HW1 2885   0.265   3.652   4.261
  958SOL    HW2 2886   0.275   3.575   4.117
  959SOL     OW 2887   0.230   3.296   4.262
  959SOL    HW1 2888   0.204   3.392   4.262
  959SOL    HW2 2889   0.159   3.242   4.307
  960SOL     OW 2890   0.240   2.953   4.610
  960SOL    HW1 2891   0.254   2.869   4.662
  960SOL    HW2 2892   0.185   3.017   4.665
  961SOL     OW 2893   0.606   2.826   3.847
  961SOL    HW1 2894   0.613   2.910   3.793
  961SOL    HW2 2895   0.652   2.839   3.935
  962SOL     OW 2896   0.122   2.505   4.287
  962SOL    HW1 2897   0.077   2.417   4.304
  962SOL    HW2 2898   0.121   2.559   4.371
  963SOL     OW 2899   1.842   3.629   4.083
  963SOL    HW1 2900   1.896   3.600   4.163
  963SOL    HW2 2901   1.872   3.719   4.054
  964SOL     OW 2902   0.027   3.458   3.841
  964SOL    HW1 2903   0.008   3.362   3.862
  964SOL    HW2 2904  -0.006   3.516   3.916
  965SOL     OW 2905   1.689   2.784   4.336
  965SOL    HW1 2906   1.784   2.755   4.344
  965SOL    HW2 2907   1.681   2.849   4.261
  966SOL     OW 2908   1.641   2.970   4.156
  966SOL    HW1 2909   1.727   2.972   4.104
  966SOL    HW2 2910   1.655   3.017   4.244
  967SOL     OW 2911   0.613   3.227   4.450
  967SOL    HW1 2912   0.564   3.140   4.459
  967SOL    HW2 2913   0.590   3.270   4.363
  968SOL     OW 2914   0.809   1.866   4.226
  968SOL    HW1 2915   0.849   1.957   4.217
  968SOL    HW2 2916   0.709   1.874   4.232
  969SOL     OW 2917   1.525   2.861   3.914
  969SOL    HW1 2918   1.462   2.785   3.927
  969SOL    HW2 2919   1.573   2.879   4.000
  970SOL     OW 2920   1.667   3.576   4.296
  970SOL    HW1 2921   1.626   3.553   4.208
  970SOL    HW2 2922   1.649   3.502   4.361
  971SOL     OW 2923   0.598   2.591   3.994
  971SOL    HW1 2924   0.622   2.660   3.926
  971SOL    HW2 2925   0.520   2.624   4.048
  972SOL     OW 2926   1.281   2.207   4.668
  972SOL    HW1 2927   1.195   2.157   4.655
  972SOL    HW2 2928   1.343   2.153   4.724
  973SOL     OW 2929   1.576   3.524   4.031
  973SOL    HW1 2930   1.665   3.570   4.034
  973SOL    HW2 2931   1.555   3.500   3.936
  974SOL     OW 2932   1.041   2.563   4.153
  974SOL    HW1 2933   1.067   2.559   4.249
  974SOL    HW2 2934   0.956   2.512   4.139
  975SOL     OW 2935   0.076   2.673   4.513
  975SOL    HW1 2936   0.175   2.661   4.522
  975SOL    HW2 2937   0.052   2.768   4.534
  976SOL     OW 2938   0.865   2.210   3.919
  976SOL    HW1 2939   0.924   2.273   3.870
  976SOL    HW2 2940   0.884   2.116   3.890
  977SOL     OW 2941   1.362   3.006   4.269
  977SOL    HW1 2942   1.445   2.977   4.221
  977SOL    HW2 2943   1.313   3.073   4.213
  978SOL     OW 2944   0.550   2.058   4.609
  978SOL    HW1 2945   0.545   2.053   4.709
  978SOL    HW2 2946   0.552   2.154   4.580
  979SOL     OW 2947   1.008   3.318   4.201
  979SOL    HW1 2948   0.962   3.390   4.149
  979SOL    HW2 2949   1.004   3.338   4.299
  980SOL     OW 2950   0.351   3.663   4.577
  980SOL    HW1 2951   0.401   3.577   4.583
  980SOL    HW2 2952   0.416   3.740   4.574
  981SOL     OW 2953   1.795   2.928   4.597
  981SOL    HW1 2954   1.733   2.913   4.521
  981SOL    HW2 2955   1.743   2.939   4.682
  982SOL     OW 2956   0.321   2.805   3.966
  982SOL    HW1 2957   0.403   2.844   3.924
  982SOL    HW2 2958   0.294   2.723   3.917
  983SOL     OW 2959   1.458   2.597   4.452
  983SOL    HW1 2960   1.453   2.532   4.527
  983SOL    HW2 2961   1.538   2.656   4.465
  984SOL     OW 2962   1.111   3.638   3.961
  984SOL    HW1 2963   1.051   3.576   4.011
  984SOL    HW2 2964   1.142   3.594   3.876
  985SOL     OW 2965   1.632   3.239   3.805
  985SOL    HW1 2966   1.600   3.333   3.795
  985SOL    HW2 2967   1.556   3.176   3.793
  986SOL     OW 2968   0.464   3.605   4.047
  986SOL    HW1 2969   0.497   3.644   4.133
  986SOL    HW2 2970   0.540   3.598   3.982
  987SOL     OW 2971   1.400   1.969   4.150
  987SOL    HW1 2972   1.376   1.932   4.060
  987SOL    HW2 2973   1.499   1.985   4.154
  988SOL     OW 2974   0.382   2.562   4.204
  988SOL    HW1 2975   0.427   2.472   4.201
  988SOL    HW2 2976   0.288   2.551   4.237
  989SOL     OW 2977   0.614   1.984   3.841
  989SOL    HW1 2978   0.712   1.962   3.848
  989SOL    HW2 2979   0.583   1.967   3.748
  990SOL     OW 2980   0.539   1.926   4.236
  990SOL    HW1 2981   0.458   1.927   4.294
  990SOL    HW2 2982   0.542   2.009   4.181
  991SOL     OW 2983   1.434   3.050   3.765
  991SOL    HW1 2984   1.466   2.974   3.822
  991SOL    HW2 2985   1.342   3.077   3.795
  992SOL     OW 2986   0.297   1.897   3.895
  992SOL    HW1 2987   0.346   1.981   3.874
  992SOL    HW2 2988   0.359   1.832   3.940
  993SOL     OW 2989   0.935   2.098   4.204
  993SOL    HW1 2990   0.887   2.139   4.126
  993SOL    HW2 2991   1.034   2.096   4.185
  994SOL     OW 2992   0.459   3.014   4.465
  994SOL    HW1 2993   0.388   2.987   4.530
  994SOL    HW2 2994   0.433   2.986   4.372
  995SOL     OW 2995   1.271   3.659   4.315
  995SOL    HW1 2996   1.315   3.723   4.251
  995SOL    HW2 2997   1.221   3.711   4.385
  996SOL     OW 2998   1.032   2.411   3.740
  996SOL    HW1 2999   0.991   2.493   3.701
  996SOL    HW2 3000   1.096   2.437   3.813
  997SOL     OW 3001   0.866   2.316   4.366
  997SOL    HW1 3002   0.834   2.388   4.304
  997SOL    HW2 3003   0.890   2.235   4.313
  998SOL     OW 3004   1.017   1.901   4.477
  998SOL    HW1 3005   0.945   1.906   4.408
  998SOL    HW2 3006   0.993   1.832   4.546
  999SOL     OW 3007   1.857   2.695   4.101
  999SOL    HW1 3008   1.899   2.631   4.165
  999SOL    HW2 3009   1.819   2.644   4.023
 1000SOL     OW 3010   0.488   3.247   3.898
 1000SOL    HW1 3011   0.401   3.232   3.945
 1000SOL    HW2 3012   0.471   3.273   3.803
 1001SOL     OW 3013   1.664   3.142   4.381
 1001SOL    HW1 3014   1.763   3.150   4.395
 1001SOL    HW2 3015   1.619   3.226   4.412
 1002SOL     OW 3016   1.390   2.437   3.802
 1002SOL    HW1 3017   1.336   2.416   3.883
 1002SOL    HW2 3018   1.481   2.396   3.811
 1003SOL     OW 3019   0.527   2.118   4.052
 1003SOL    HW1 3020   0.554   2.059   3.977
 1003SOL    HW2 3021   0.527   2.213   4.021
 1004SOL     OW 3022   0.705   2.912   4.092
 1004SOL    HW1 3023   0.691   2.919   4.191
 1004SOL    HW2 3024   0.789   2.861   4.074
 1005SOL     OW 3025   0.367   2.962   4.225
 1005SOL    HW1 3026   0.360   3.045   4.169
 1005SOL    HW2 3027   0.371   2.882   4.165
 1006SOL     OW 3028   0.566   2.399   4.589
 1006SOL    HW1 3029   0.578   2.465   4.515
 1006SOL    HW2 3030   0.612   2.433   4.672
 1007SOL     OW 3031   1.252   3.210   4.112
 1007SOL    HW1 3032   1.302   3.287   4.152
 1007SOL    HW2 3033   1.157   3.212   4.144
 1008SOL     OW 3034   1.582   2.501   4.196
 1008SOL    HW1 3035   1.551   2.562   4.269
 1008SOL    HW2 3036   1.632   2.553   4.127
 1009SOL     OW 3037   1.209   2.387   3.999
 1009SOL    HW1 3038   1.222   2.303   4.053
 1009SOL    HW2 3039   1.180   2.461   4.059
 1010SOL     OW 3040   0.307   1.925   4.342
 1010SOL    HW1 3041   0.296   2.019   4.375
 1010SOL    HW2 3042   0.302   1.862   4.419
 1011SOL     OW 3043   1.622   2.229   4.098
 1011SOL    HW1 3044   1.624   2.153   4.162
 1011SOL    HW2 3045   1.574   2.306   4.138
 1012SOL     OW 3046   1.540   2.136   3.849
 1012SOL    HW1 3047   1.479   2.061   3.872
 1012SOL    HW2 3048   1.562   2.188   3.932
 1013SOL     OW 3049   1.303   2.700   3.766
 1013SOL    HW1 3050   1.337   2.607   3.781
 1013SOL    HW2 3051   1.321   2.727   3.671
 1014SOL     OW 3052   1.068   3.195   4.573
 1014SOL    HW1 3053   1.075   3.111   4.518
 1014SOL    HW2 3054   1.130   3.264   4.537
 1015SOL     OW 3055   0.008   3.188   3.924
 1015SOL    HW1 3056  -0.085   3.209   3.893
 1015SOL    HW2 3057   0.018   3.089   3.937
 1016SOL     OW 3058   0.088   3.663   4.651
 1016SOL    HW1 3059   0.046   3.577   4.624
 1016SOL    HW2 3060   0.182   3.666   4.617
 1017SOL     OW 3061   0.815   2.434   4.049
 1017SOL    HW1 3062   0.822   2.345   4.003
 1017SOL    HW2 3063   0.721   2.468   4.041
 1018SOL     OW 3064   0.473   2.362   3.915
 1018SOL    HW1 3065   0.534   2.442   3.919
 1018SOL    HW2 3066   0.378   2.393   3.922
 1019SOL     OW 3067   1.302   2.717   4.033
 1019SOL    HW1 3068   1.216   2.686   4.075
 1019SOL    HW2 3069   1.298   2.703   3.934
 1020SOL     OW 3070   1.726   1.997   4.247
 1020SOL    HW1 3071   1.799   1.980   4.180
 1020SOL    HW2 3072   1.695   1.910   4.285
 1021SOL     OW 3073   1.388   3.435   4.201
 1021SOL    HW1 3074   1.455   3.447   4.127
 1021SOL    HW2 3075   1.348   3.524   4.224
 1022SOL     OW 3076   1.280   2.789   4.396
 1022SOL    HW1 3077   1.340   2.708   4.398
 1022SOL    HW2 3078   1.320   2.858   4.336
 1023SOL     OW 3079   0.672   3.478   3.878
 1023SOL    HW1 3080   0.681   3.488   3.779
 1023SOL    HW2 3081   0.632   3.389   3.899
 1024SOL     OW 3082   1.841   2.037   4.687
 1024SOL    HW1 3083   1.880   1.952   4.651
 1024SOL    HW2 3084   1.743   2.039   4.668
 1025SOL     OW 3085   0.263   2.188   4.444
 1025SOL    HW1 3086   0.184   2.239   4.410
 1025SOL    HW2 3087   0.254   2.173   4.542
 1026SOL     OW 3088   1.194   3.474   3.755
 1026SOL    HW1 3089   1.200   3.381   3.792
 1026SOL    HW2 3090   1.135   3.474   3.675
 1027SOL     OW 3091   0.916   2.772   4.015
 1027SOL    HW1 3092   0.979   2.810   3.947
 1027SOL    HW2 3093   0.956   2.689   4.054
 1028SOL     OW 3094   1.504   3.469   3.768
 1028SOL    HW1 3095   1.412   3.506   3.775
 1028SOL    HW2 3096   1.542   3.489   3.678
 1029SOL     OW 3097   1.039   2.960   4.420
 1029SOL    HW1 3098   0.969   2.913   4.474
 1029SOL    HW2 3099   1.098   2.892   4.377
 1030SOL     OW 3100   0.590   3.349   4.215
 1030SOL    HW1 3101   0.632   3.291   4.145
 1030SOL    HW2 3102   0.546   3.428   4.171
 1031SOL     OW 3103   0.255   3.210   4.014
 1031SOL    HW1 3104   0.159   3.211   3.987
 1031SOL    HW2 3105   0.267   3.263   4.098
 1032SOL     OW 3106   0.075   2.207   3.757
 1032SOL    HW1 3107  -0.017   2.179   3.728
 1032SOL    HW2 3108   0.106   2.284   3.701
 1033SOL     OW 3109   0.072   2.028   4.042
 1033SOL    HW1 3110   0.055   2.111   3.988
 1033SOL    HW2 3111   0.162   1.991   4.020
 1034SOL     OW 3112   1.183   3.197   3.843
 1034SOL    HW1 3113   1.084   3.186   3.845
 1034SOL    HW2 3114   1.217   3.212   3.936
 1035SOL     OW 3115   1.225   2.187   4.173
 1035SOL    HW1 3116   1.290   2.113   4.162
 1035SOL    HW2 3117   1.245   2.237   4.257
 1036SOL     OW 3118   0.594   2.607   4.376
 1036SOL    HW1 3119   0.644   2.692   4.357
 1036SOL    HW2 3120   0.506   2.609   4.328
 1037SOL     OW 3121   0.859   3.236   3.740
 1037SOL    HW1 3122   0.813   3.251   3.828
 1037SOL    HW2 3123   0.903   3.321   3.710
 1038SOL     OW 3124   0.661   3.652   4.677
 1038SOL    HW1 3125   0.615   3.740   4.664
 1038SOL    HW2 3126   0.760   3.664   4.670
 1039SOL     OW 3127   0.859   2.818   4.585
 1039SOL    HW1 3128   0.913   2.749   4.633
 1039SOL    HW2 3129   0.827   2.887   4.651
 1040SOL     OW 3130   1.083   2.846   3.811
 1040SOL    HW1 3131   1.060   2.899   3.729
 1040SOL    HW2 3132   1.164   2.790   3.792
 1041SOL     OW 3133   1.861   3.431   4.575
 1041SOL    HW1 3134   1.790   3.419   4.505
 1041SOL    HW2 3135   1.862   3.352   4.635
 1042SOL     OW 3136   0.079   3.102   4.377
 1042SOL    HW1 3137   0.078   3.055   4.465
 1042SOL    HW2 3138   0.161   3.074   4.326
 1043SOL     OW 3139   0.428   2.286   4.244
 1043SOL    HW1 3140   0.458   2.214   4.182
 1043SOL    HW2 3141   0.389   2.246   4.327
 1044SOL     OW 3142   0.812   3.448   4.411
 1044SOL    HW1 3143   0.844   3.458   4.317
 1044SOL    HW2 3144   0.733   3.386   4.413
 1045SOL     OW 3145   0.770   3.192   4.025
 1045SOL    HW1 3146   0.724   3.105   4.042
 1045SOL    HW2 3147   0.861   3.189   4.066
 1046SOL     OW 3148   1.352   1.914   3.892
 1046SOL    HW1 3149   1.387   1.873   3.808
 1046SOL    HW2 3150   1.262   1.876   3.912
 1047SOL     OW 3151   1.300   2.315   4.415
 1047SOL    HW1 3152   1.241   2.395   4.419
 1047SOL    HW2 3153   1.315   2.280   4.508
 1048SOL     OW 3154   0.039   2.939   4.024
 1048SOL    HW1 3155   0.138   2.928   4.015
 1048SOL    HW2 3156  -0.001   2.853   4.056
 1049SOL     OW 3157   0.875   3.508   4.061
 1049SOL    HW1 3158   0.798   3.473   4.007
 1049SOL    HW2 3159   0.843   3.579   4.123
 1050SOL     OW 3160   0.230   4.352   0.113
 1050SOL    HW1 3161   0.137   4.350   0.150
 1050SOL    HW2 3162   0.231   4.313   0.021
 1051SOL     OW 3163   0.225   3.999   0.996
 1051SOL    HW1 3164   0.260   3.982   1.088
 1051SOL    HW2 3165   0.137   3.954   0.984
 1052SOL     OW 3166   0.019   4.092   0.647
 1052SOL    HW1 3167  -0.063   4.135   0.686
 1052SOL    HW2 3168  -0.009   4.019   0.584
 1053SOL     OW 3169   1.135   4.427   0.717
 1053SOL    HW1 3170   1.192   4.505   0.692
 1053SOL    HW2 3171   1.075   4.453   0.793
 1054SOL     OW 3172   1.755   4.331   0.231
 1054SOL    HW1 3173   1.743   4.318   0.132
 1054SOL    HW2 3174   1.725   4.250   0.280
 1055SOL     OW 3175   0.850   4.522   1.823
 1055SOL    HW1 3176   0.846   4.598   1.888
 1055SOL    HW2 3177   0.872   4.558   1.732
 1056SOL     OW 3178   0.685   4.736   0.665
 1056SOL    HW1 3179   0.754   4.720   0.735
 1056SOL    HW2 3180   0.612   4.793   0.703
 1057SOL     OW 3181   0.438   4.116   1.499
 1057SOL    HW1 3182   0.520   4.060   1.508
 1057SOL    HW2 3183   0.357   4.058   1.503
 1058SOL     OW 3184   1.603   4.171   0.737
 1058SOL    HW1 3185   1.529   4.217   0.687
 1058SOL    HW2 3186   1.654   4.239   0.790
 1059SOL     OW 3187   1.594   3.838   1.480
 1059SOL    HW1 3188   1.576   3.905   1.408
 1059SOL    HW2 3189   1.591   3.884   1.569
 1060SOL     OW 3190   0.122   4.367   0.563
 1060SOL    HW1 3191   0.077   4.279   0.580
 1060SOL    HW2 3192   0.121   4.421   0.647
 1061SOL     OW 3193   0.113   4.461   1.597
 1061SOL    HW1 3194   0.201   4.448   1.642
 1061SOL    HW2 3195   0.100   4.558   1.575
 1062SOL     OW 3196   0.809   3.728   0.502
 1062SOL    HW1 3197   0.849   3.819   0.493
 1062SOL    HW2 3198   0.709   3.736   0.508
 1063SOL     OW 3199   0.317   3.975   1.801
 1063SOL    HW1 3200   0.388   4.046   1.807
 1063SOL    HW2 3201   0.229   4.014   1.829
 1064SOL     OW 3202   0.598   4.453   0.270
 1064SOL    HW1 3203   0.622   4.522   0.202
 1064SOL    HW2 3204   0.520   4.486   0.324
 1065SOL     OW 3205   1.281   4.069   0.944
 1065SOL    HW1 3206   1.195   4.019   0.931
 1065SOL    HW2 3207   1.343   4.015   1.000
 1066SOL     OW 3208   0.807   4.329   1.465
 1066SOL    HW1 3209   0.760   4.326   1.554
 1066SOL    HW2 3210   0.756   4.274   1.399
 1067SOL     OW 3211   1.394   4.193   1.674
 1067SOL    HW1 3212   1.374   4.236   1.762
 1067SOL    HW2 3213   1.472   4.131   1.683
 1068SOL     OW 3214   0.991   4.134   1.242
 1068SOL    HW1 3215   0.914   4.168   1.296
 1068SOL    HW2 3216   0.957   4.083   1.163
 1069SOL     OW 3217   1.041   4.425   0.429
 1069SOL    HW1 3218   1.067   4.421   0.525
 1069SOL    HW2 3219   0.956   4.374   0.415
 1070SOL     OW 3220   0.076   4.535   0.789
 1070SOL    HW1 3221   0.175   4.523   0.798
 1070SOL    HW2 3222   0.052   4.630   0.810
 1071SOL     OW 3223   0.865   4.072   0.195
 1071SOL    HW1 3224   0.924   4.135   0.146
 1071SOL    HW2 3225   0.884   3.978   0.166
 1072SOL     OW 3226   1.719   4.309   1.831
 1072SOL    HW1 3227   1.693   4.398   1.795
 1072SOL    HW2 3228   1.717   4.241   1.758
 1073SOL     OW 3229   0.550   3.920   0.885
 1073SOL    HW1 3230   0.545   3.915   0.985
 1073SOL    HW2 3231   0.552   4.016   0.856
 1074SOL     OW 3232   1.458   4.459   0.728
 1074SOL    HW1 3233   1.453   4.394   0.803
 1074SOL    HW2 3234   1.538   4.518   0.741
 1075SOL     OW 3235   0.202   4.009   1.498
 1075SOL    HW1 3236   0.122   4.069   1.485
 1075SOL    HW2 3237   0.192   3.960   1.584
 1076SOL     OW 3238   1.400   3.831   0.426
 1076SOL    HW1 3239   1.376   3.794   0.336
 1076SOL    HW2 3240   1.499   3.847   0.430
 1077SOL     OW 3241   0.382   4.424   0.480
 1077SOL    HW1 3242   0.427   4.334   0.477
 1077SOL    HW2 3243   0.288   4.413   0.513
 1078SOL     OW 3244   1.547   3.946   1.729
 1078SOL    HW1 3245   1.542   3.983   1.821
 1078SOL    HW2 3246   1.475   3.877   1.717
 1079SOL     OW 3247   0.781   3.988   1.749
 1079SOL    HW1 3248   0.848   3.927   1.792
 1079SOL    HW2 3249   0.708   4.007   1.814
 1080SOL     OW 3250   1.351   4.314   1.433
 1080SOL    HW1 3251   1.379   4.271   1.518
 1080SOL    HW2 3252   1.376   4.410   1.434
 1081SOL     OW 3253   0.922   4.227   0.899
 1081SOL    HW1 3254   0.897   4.218   0.803
 1081SOL    HW2 3255   0.970   4.145   0.930
 1082SOL     OW 3256   0.539   3.788   0.512
 1082SOL    HW1 3257   0.458   3.789   0.570
 1082SOL    HW2 3258   0.542   3.871   0.457
 1083SOL     OW 3259   0.297   3.759   0.171
 1083SOL    HW1 3260   0.346   3.843   0.150
 1083SOL    HW2 3261   0.359   3.694   0.216
 1084SOL     OW 3262   0.935   3.960   0.480
 1084SOL    HW1 3263   0.887   4.001   0.402
 1084SOL    HW2 3264   1.034   3.958   0.461
 1085SOL     OW 3265   1.076   4.407   1.464
 1085SOL    HW1 3266   0.996   4.346   1.467
 1085SOL    HW2 3267   1.157   4.354   1.440
 1086SOL     OW 3268   0.459   4.876   0.741
 1086SOL    HW1 3269   0.388   4.849   0.806
 1086SOL    HW2 3270   0.433   4.848   0.648
 1087SOL     OW 3271   1.032   4.273   0.016
 1087SOL    HW1 3272   0.991   4.355  -0.023
 1087SOL    HW2 3273   1.096   4.299   0.089
 1088SOL     OW 3274   0.078   4.280   1.386
 1088SOL    HW1 3275   0.170   4.279   1.345
 1088SOL    HW2 3276   0.072   4.354   1.453
 1089SOL     OW 3277   0.561   3.946   1.147
 1089SOL    HW1 3278   0.599   3.862   1.184
 1089SOL    HW2 3279   0.473   3.965   1.191
 1090SOL     OW 3280   0.866   4.178   0.642
 1090SOL    HW1 3281   0.834   4.250   0.580
 1090SOL    HW2 3282   0.890   4.097   0.589
 1091SOL     OW 3283   1.017   3.763   0.753
 1091SOL    HW1 3284   0.945   3.768   0.684
 1091SOL    HW2 3285   0.993   3.694   0.822
 1092SOL     OW 3286   1.466   4.314   0.992
 1092SOL    HW1 3287   1.436   4.219   0.999
 1092SOL    HW2 3288   1.539   4.330   1.058
 1093SOL     OW 3289   1.857   4.557   0.377
 1093SOL    HW1 3290   1.899   4.493   0.441
 1093SOL    HW2 3291   1.819   4.506   0.299
 1094SOL     OW 3292   1.390   4.299   0.078
 1094SOL    HW1 3293   1.336   4.278   0.159
 1094SOL    HW2 3294   1.481   4.258   0.087
 1095SOL     OW 3295   0.527   3.980   0.328
 1095SOL    HW1 3296   0.554   3.921   0.253
 1095SOL    HW2 3297   0.527   4.075   0.297
 1096SOL     OW 3298   0.915   3.813   1.402
 1096SOL    HW1 3299   0.940   3.793   1.307
 1096SOL    HW2 3300   0.987   3.869   1.444
 1097SOL     OW 3301   0.410   4.537   1.251
 1097SOL    HW1 3302   0.496   4.549   1.301
 1097SOL    HW2 3303   0.368   4.450   1.278
 1098SOL     OW 3304   1.274   4.110   1.262
 1098SOL    HW1 3305   1.295   4.184   1.326
 1098SOL    HW2 3306   1.185   4.127   1.219
 1099SOL     OW 3307   0.566   4.261   0.865
 1099SOL    HW1 3308   0.578   4.327   0.791
 1099SOL    HW2 3309   0.612   4.295   0.948
 1100SOL     OW 3310   1.582   4.363   0.472
 1100SOL    HW1 3311   1.551   4.424   0.545
 1100SOL    HW2 3312   1.632   4.415   0.403
 1101SOL     OW 3313   0.402   4.475   1.598
 1101SOL    HW1 3314   0.470   4.530   1.551
 1101SOL    HW2 3315   0.442   4.387   1.625
 1102SOL     OW 3316   1.587   4.503   1.670
 1102SOL    HW1 3317   1.495   4.541   1.665
 1102SOL    HW2 3318   1.647   4.550   1.605
 1103SOL     OW 3319   1.013   3.829   1.770
 1103SOL    HW1 3320   1.019   3.914   1.718
 1103SOL    HW2 3321   1.045   3.753   1.713
 1104SOL     OW 3322   0.504   3.774   1.740
 1104SOL    HW1 3323   0.462   3.717   1.670
 1104SOL    HW2 3324   0.438   3.843   1.772
 1105SOL     OW 3325   0.573   4.594   1.029
 1105SOL    HW1 3326   0.617   4.683   1.020
 1105SOL    HW2 3327   0.510   4.594   1.106
 1106SOL     OW 3328   1.360   4.586   1.045
 1106SOL    HW1 3329   1.285   4.586   0.979
 1106SOL    HW2 3330   1.397   4.494   1.054
 1107SOL     OW 3331   1.209   4.249   0.275
 1107SOL    HW1 3332   1.222   4.165   0.329
 1107SOL    HW2 3333   1.180   4.323   0.335
 1108SOL     OW 3334   0.307   3.937   1.231
 1108SOL    HW1 3335   0.284   3.974   1.321
 1108SOL    HW2 3336   0.277   3.842   1.225
 1109SOL     OW 3337   0.732   4.358   1.064
 1109SOL    HW1 3338   0.791   4.332   0.988
 1109SOL    HW2 3339   0.704   4.454   1.053
 1110SOL     OW 3340   1.728   4.659   1.854
 1110SOL    HW1 3341   1.682   4.652   1.765
 1110SOL    HW2 3342   1.666   4.703   1.920
 1111SOL     OW 3343   0.307   3.787   0.618
 1111SOL    HW1 3344   0.296   3.881   0.651
 1111SOL    HW2 3345   0.302   3.724   0.695
 1112SOL     OW 3346   1.622   4.091   0.374
 1112SOL    HW1 3347   1.624   4.015   0.438
 1112SOL    HW2 3348   1.574   4.168   0.414
 1113SOL     OW 3349   1.023   4.490   0.966
 1113SOL    HW1 3350   1.038   4.511   1.062
 1113SOL    HW2 3351   0.993   4.395   0.957
 1114SOL     OW 3352   1.540   3.998   0.125
 1114SOL    HW1 3353   1.479   3.923   0.148
 1114SOL    HW2 3354   1.562   4.050   0.208
 1115SOL     OW 3355   0.319   4.534   0.949
 1115SOL    HW1 3356   0.412   4.570   0.954
 1115SOL    HW2 3357   0.313   4.449   1.001
 1116SOL     OW 3358   0.339   4.233   1.006
 1116SOL    HW1 3359   0.287   4.150   0.989
 1116SOL    HW2 3360   0.416   4.238   0.942
 1117SOL     OW 3361   1.138   4.104   1.678
 1117SOL    HW1 3362   1.093   4.167   1.742
 1117SOL    HW2 3363   1.231   4.135   1.661
 1118SOL     OW 3364   1.160   3.931   1.477
 1118SOL    HW1 3365   1.160   3.995   1.554
 1118SOL    HW2 3366   1.188   3.979   1.394
 1119SOL     OW 3367   1.002   4.520   1.238
 1119SOL    HW1 3368   1.043   4.488   1.324
 1119SOL    HW2 3369   0.906   4.493   1.235
 1120SOL     OW 3370   0.040   4.268   1.114
 1120SOL    HW1 3371   0.125   4.235   1.073
 1120SOL    HW2 3372   0.053   4.283   1.212
 1121SOL     OW 3373   0.189   4.244   1.722
 1121SOL    HW1 3374   0.248   4.204   1.652
 1121SOL    HW2 3375   0.131   4.315   1.681
 1122SOL     OW 3376   0.815   4.296   0.325
 1122SOL    HW1 3377   0.822   4.207   0.279
 1122SOL    HW2 3378   0.721   4.330   0.317
 1123SOL     OW 3379   1.657   4.328   1.206
 1123SOL    HW1 3380   1.619   4.259   1.268
 1123SOL    HW2 3381   1.739   4.292   1.162
 1124SOL     OW 3382   0.671   4.188   1.269
 1124SOL    HW1 3383   0.637   4.099   1.239
 1124SOL    HW2 3384   0.697   4.242   1.189
 1125SOL     OW 3385   0.473   4.224   0.191
 1125SOL    HW1 3386   0.534   4.304   0.195
 1125SOL    HW2 3387   0.378   4.255   0.198
 1126SOL     OW 3388   0.903   3.810   0.133
 1126SOL    HW1 3389   0.954   3.811   0.047
 1126SOL    HW2 3390   0.959   3.768   0.204
 1127SOL     OW 3391   1.726   3.859   0.523
 1127SOL    HW1 3392   1.799   3.842   0.456
 1127SOL    HW2 3393   1.695   3.772   0.561
 1128SOL     OW 3394   1.280   4.651   0.672
 1128SOL    HW1 3395   1.340   4.570   0.674
 1128SOL    HW2 3396   1.320   4.720   0.612
 1129SOL     OW 3397   1.841   3.899   0.963
 1129SOL    HW1 3398   1.880   3.814   0.927
 1129SOL    HW2 3399   1.743   3.901   0.944
 1130SOL     OW 3400   0.263   4.050   0.720
 1130SOL    HW1 3401   0.184   4.101   0.686
 1130SOL    HW2 3402   0.254   4.035   0.818
 1131SOL     OW 3403   1.014   3.960   0.971
 1131SOL    HW1 3404   1.006   3.924   0.878
 1131SOL    HW2 3405   1.012   3.884   1.036
 1132SOL     OW 3406   1.709   4.109   1.381
 1132SOL    HW1 3407   1.782   4.178   1.385
 1132SOL    HW2 3408   1.737   4.034   1.322
 1133SOL     OW 3409   0.105   4.737   1.726
 1133SOL    HW1 3410   0.028   4.704   1.780
 1133SOL    HW2 3411   0.190   4.707   1.768
 1134SOL     OW 3412   0.672   3.927   1.489
 1134SOL    HW1 3413   0.762   3.911   1.449
 1134SOL    HW2 3414   0.680   3.932   1.588
 1135SOL     OW 3415   0.075   4.069   0.033
 1135SOL    HW1 3416  -0.017   4.041   0.004
 1135SOL    HW2 3417   0.106   4.146  -0.023
 1136SOL     OW 3418   1.440   4.580   1.398
 1136SOL    HW1 3419   1.383   4.632   1.335
 1136SOL    HW2 3420   1.536   4.592   1.374
 1137SOL     OW 3421   0.072   3.890   0.318
 1137SOL    HW1 3422   0.055   3.973   0.264
 1137SOL    HW2 3423   0.162   3.853   0.296
 1138SOL     OW 3424   0.613   4.566   1.431
 1138SOL    HW1 3425   0.669   4.647   1.414
 1138SOL    HW2 3426   0.672   4.486   1.434
 1139SOL     OW 3427   0.716   4.289   1.708
 1139SOL    HW1 3428   0.735   4.354   1.782
 1139SOL    HW2 3429   0.776   4.209   1.717
 1140SOL     OW 3430   1.674   4.607   1.254
 1140SOL    HW1 3431   1.647   4.518   1.217
 1140SOL    HW2 3432   1.675   4.675   1.181
 1141SOL     OW 3433   1.225   4.049   0.449
 1141SOL    HW1 3434   1.290   3.975   0.438
 1141SOL    HW2 3435   1.245   4.099   0.533
 1142SOL     OW 3436   0.594   4.469   0.652
 1142SOL    HW1 3437   0.644   4.554   0.633
 1142SOL    HW2 3438   0.506   4.471   0.604
 1143SOL     OW 3439   1.777   4.066   1.642
 1143SOL    HW1 3440   1.760   4.097   1.548
 1143SOL    HW2 3441   1.693   4.029   1.680
 1144SOL     OW 3442   1.824   3.916   1.227
 1144SOL    HW1 3443   1.820   3.826   1.271
 1144SOL    HW2 3444   1.827   3.905   1.128
 1145SOL     OW 3445   0.428   4.148   0.520
 1145SOL    HW1 3446   0.458   4.076   0.458
 1145SOL    HW2 3447   0.389   4.108   0.603
 1146SOL     OW 3448   0.317   4.271   1.280
 1146SOL    HW1 3449   0.355   4.212   1.352
 1146SOL    HW2 3450   0.357   4.245   1.192
 1147SOL     OW 3451   1.424   3.938   1.112
 1147SOL    HW1 3452   1.476   3.873   1.167
 1147SOL    HW2 3453   1.375   4.001   1.173
 1148SOL     OW 3454   1.001   3.758   1.154
 1148SOL    HW1 3455   0.938   3.686   1.123
 1148SOL    HW2 3456   1.094   3.722   1.154
 1149SOL     OW 3457   1.352   3.776   0.168
 1149SOL    HW1 3458   1.387   3.735   0.084
 1149SOL    HW2 3459   1.262   3.738   0.188
 1150SOL     OW 3460   1.300   4.177   0.691
 1150SOL    HW1 3461   1.241   4.257   0.695
 1150SOL    HW2 3462   1.315   4.142   0.784
 1151SOL     OW 3463   1.593   3.945   0.882
 1151SOL    HW1 3464   1.509   3.944   0.936
 1151SOL    HW2 3465   1.595   4.028   0.826
 1152SOL     OW 3466   0.230   4.352   1.975
 1152SOL    HW1 3467   0.137   4.350   2.012
 1152SOL    HW2 3468   0.231   4.313   1.883
 1153SOL     OW 3469   0.225   3.999   2.858
 1153SOL    HW1 3470   0.260   3.982   2.950
 1153SOL    HW2 3471   0.137   3.954   2.846
 1154SOL     OW 3472   0.019   4.092   2.509
 1154SOL    HW1 3473  -0.063   4.135   2.548
 1154SOL    HW2 3474  -0.009   4.019   2.446
 1155SOL     OW 3475   1.135   4.427   2.579
 1155SOL    HW1 3476   1.192   4.505   2.554
 1155SOL    HW2 3477   1.075   4.453   2.655
 1156SOL     OW 3478   1.755   4.331   2.093
 1156SOL    HW1 3479   1.743   4.318   1.994
 1156SOL    HW2 3480   1.725   4.250   2.142
 1157SOL     OW 3481   0.850   4.522   3.685
 1157SOL    HW1 3482   0.846   4.598   3.750
 1157SOL    HW2 3483   0.872   4.558   3.594
 1158SOL     OW 3484   0.685   4.736   2.527
 1158SOL    HW1 3485   0.754   4.720   2.597
 1158SOL    HW2 3486   0.612   4.793   2.565
 1159SOL     OW 3487   0.438   4.116   3.361
 1159SOL    HW1 3488   0.520   4.060   3.370
 1159SOL    HW2 3489   0.357   4.058   3.365
 1160SOL     OW 3490   1.603   4.171   2.599
 1160SOL    HW1 3491   1.529   4.217   2.549
 1160SOL    HW2 3492   1.654   4.239   2.652
 1161SOL     OW 3493   1.594   3.838   3.342
 1161SOL    HW1 3494   1.576   3.905   3.270
 1161SOL    HW2 3495   1.591   3.884   3.431
 1162SOL     OW 3496   0.122   4.367   2.425
 1162SOL    HW1 3497   0.077   4.279   2.442
 1162SOL    HW2 3498   0.121   4.421   2.509
 1163SOL     OW 3499   0.113   4.461   3.459
 1163SOL    HW1 3500   0.201   4.448   3.504
 1163SOL    HW2 3501   0.100   4.558   3.437
 1164SOL     OW 3502   0.809   3.728   2.364
 1164SOL    HW1 3503   0.849   3.819   2.355
 1164SOL    HW2 3504   0.709   3.736   2.370
 1165SOL     OW 3505   0.317   3.975   3.663
 1165SOL    HW1 3506   0.388   4.046   3.669
 1165SOL    HW2 3507   0.229   4.014   3.691
 1166SOL     OW 3508   0.598   4.453   2.132
 1166SOL    HW1 3509   0.622   4.522   2.064
 1166SOL    HW2 3510   0.520   4.486   2.186
 1167SOL     OW 3511   1.281   4.069   2.806
 1167SOL    HW1 3512   1.195   4.019   2.793
 1167SOL    HW2 3513   1.343   4.015   2.862
 1168SOL     OW 3514   0.807   4.329   3.327
 1168SOL    HW1 3515   0.760   4.326   3.416
 1168SOL    HW2 3516   0.756   4.274   3.261
 1169SOL     OW 3517   1.394   4.193   3.536
 1169SOL    HW1 3518   1.374   4.236   3.624
 1169SOL    HW2 3519   1.472   4.131   3.545
 1170SOL     OW 3520   0.991   4.134   3.104
 1170SOL    HW1 3521   0.914   4.168   3.158
 1170SOL    HW2 3522   0.957   4.083   3.025
 1171SOL     OW 3523   1.041   4.425   2.291
 1171SOL    HW1 3524   1.067   4.421   2.387
 1171SOL    HW2 3525   0.956   4.374   2.277
 1172SOL     OW 3526   0.076   4.535   2.651
 1172SOL    HW1 3527   0.175   4.523   2.660
 1172SOL    HW2 3528   0.052   4.630   2.672
 1173SOL     OW 3529   0.865   4.072   2.057
 1173SOL    HW1 3530   0.924   4.135   2.008
 1173SOL    HW2 3531   0.884   3.978   2.028
 1174SOL     OW 3532   1.719   4.309   3.693
 1174SOL    HW1 3533   1.693   4.398   3.657
 1174SOL    HW2 3534   1.717   4.241   3.620
 1175SOL     OW 3535   0.550   3.920   2.747
 1175SOL    HW1 3536   0.545   3.915   2.847
 1175SOL    HW2 3537   0.552   4.016   2.718
 1176SOL     OW 3538   1.458   4.459   2.590
 1176SOL    HW1 3539   1.453   4.394   2.665
 1176SOL    HW2 3540   1.538   4.518   2.603
 1177SOL     OW 3541   0.202   4.009   3.360
 1177SOL    HW1 3542   0.122   4.069   3.347
 1177SOL    HW2 3543   0.192   3.960   3.446
 1178SOL     OW 3544   1.400   3.831   2.288
 1178SOL    HW1 3545   1.376   3.794   2.198
 1178SOL    HW2 3546   1.499   3.847   2.292
 1179SOL     OW 3547   0.382   4.424   2.342
 1179SOL    HW1 3548   0.427   4.334   2.339
 1179SOL    HW2 3549   0.288   4.413   2.375
 1180SOL     OW 3550   1.547   3.946   3.591
 1180SOL    HW1 3551   1.542   3.983   3.683
 1180SOL    HW2 3552   1.475   3.877   3.579
 1181SOL     OW 3553   0.614   3.846   1.979
 1181SOL    HW1 3554   0.712   3.824   1.986
 1181SOL    HW2 3555   0.583   3.829   1.886
 1182SOL     OW 3556   0.781   3.988   3.611
 1182SOL    HW1 3557   0.848   3.927   3.654
 1182SOL    HW2 3558   0.708   4.007   3.676
 1183SOL     OW 3559   1.351   4.314   3.295
 1183SOL    HW1 3560   1.379   4.271   3.380
 1183SOL    HW2 3561   1.376   4.410   3.296
 1184SOL     OW 3562   0.922   4.227   2.761
 1184SOL    HW1 3563   0.897   4.218   2.665
 1184SOL    HW2 3564   0.970   4.145   2.792
 1185SOL     OW 3565   0.539   3.788   2.374
 1185SOL    HW1 3566   0.458   3.789   2.432
 1185SOL    HW2 3567   0.542   3.871   2.319
 1186SOL     OW 3568   0.297   3.759   2.033
 1186SOL    HW1 3569   0.346   3.843   2.012
 1186SOL    HW2 3570   0.359   3.694   2.078
 1187SOL     OW 3571   0.935   3.960   2.342
 1187SOL    HW1 3572   0.887   4.001   2.264
 1187SOL    HW2 3573   1.034   3.958   2.323
 1188SOL     OW 3574   1.076   4.407   3.326
 1188SOL    HW1 3575   0.996   4.346   3.329
 1188SOL    HW2 3576   1.157   4.354   3.302
 1189SOL     OW 3577   0.459   4.876   2.603
 1189SOL    HW1 3578   0.388   4.849   2.668
 1189SOL    HW2 3579   0.433   4.848   2.510
 1190SOL     OW 3580   1.032   4.273   1.878
 1190SOL    HW1 3581   0.991   4.355   1.839
 1190SOL    HW2 3582   1.096   4.299   1.951
 1191SOL     OW 3583   0.078   4.280   3.248
 1191SOL    HW1 3584   0.170   4.279   3.207
 1191SOL    HW2 3585   0.072   4.354   3.315
 1192SOL     OW 3586   0.561   3.946   3.009
 1192SOL    HW1 3587   0.599   3.862   3.046
 1192SOL    HW2 3588   0.473   3.965   3.053
 1193SOL     OW 3589   0.866   4.178   2.504
 1193SOL    HW1 3590   0.834   4.250   2.442
 1193SOL    HW2 3591   0.890   4.097   2.451
 1194SOL     OW 3592   1.017   3.763   2.615
 1194SOL    HW1 3593   0.945   3.768   2.546
 1194SOL    HW2 3594   0.993   3.694   2.684
 1195SOL     OW 3595   1.466   4.314   2.854
 1195SOL    HW1 3596   1.436   4.219   2.861
 1195SOL    HW2 3597   1.539   4.330   2.920
 1196SOL     OW 3598   1.857   4.557   2.239
 1196SOL    HW1 3599   1.899   4.493   2.303
 1196SOL    HW2 3600   1.819   4.506   2.161
 1197SOL     OW 3601   1.390   4.299   1.940
 1197SOL    HW1 3602   1.336   4.278   2.021
 1197SOL    HW2 3603   1.481   4.258   1.949
 1198SOL     OW 3604   0.527   3.980   2.190
 1198SOL    HW1 3605   0.554   3.921   2.115
 1198SOL    HW2 3606   0.527   4.075   2.159
 1199SOL     OW 3607   0.915   3.813   3.264
 1199SOL    HW1 3608   0.940   3.793   3.169
 1199SOL    HW2 3609   0.987   3.869   3.306
 1200SOL     OW 3610   0.410   4.537   3.113
 1200SOL    HW1 3611   0.496   4.549   3.163
 1200SOL    HW2 3612   0.368   4.450   3.140
 1201SOL     OW 3613   1.274   4.110   3.124
 1201SOL    HW1 3614   1.295   4.184   3.188
 1201SOL    HW2 3615   1.185   4.127   3.081
 1202SOL     OW 3616   0.566   4.261   2.727
 1202SOL    HW1 3617   0.578   4.327   2.653
 1202SOL    HW2 3618   0.612   4.295   2.810
 1203SOL     OW 3619   1.582   4.363   2.334
 1203SOL    HW1 3620   1.551   4.424   2.407
 1203SOL    HW2 3621   1.632   4.415   2.265
 1204SOL     OW 3622   0.402   4.475   3.460
 1204SOL    HW1 3623   0.470   4.530   3.413
 1204SOL    HW2 3624   0.442   4.387   3.487
 1205SOL     OW 3625   1.587   4.503   3.532
 1205SOL    HW1 3626   1.495   4.541   3.527
 1205SOL    HW2 3627   1.647   4.550   3.467
 1206SOL     OW 3628   1.013   3.829   3.632
 1206SOL    HW1 3629   1.019   3.914   3.580
 1206SOL    HW2 3630   1.045   3.753   3.575
 1207SOL     OW 3631   0.504   3.774   3.602
 1207SOL    HW1 3632   0.462   3.717   3.532
 1207SOL    HW2 3633   0.438   3.843   3.634
 1208SOL     OW 3634   0.573   4.594   2.891
 1208SOL    HW1 3635   0.617   4.683   2.882
 1208SOL    HW2 3636   0.510   4.594   2.968
 1209SOL     OW 3637   1.360   4.586   2.907
 1209SOL    HW1 3638   1.285   4.586   2.841
 1209SOL    HW2 3639   1.397   4.494   2.916
 1210SOL     OW 3640   1.209   4.249   2.137
 1210SOL    HW1 3641   1.222   4.165   2.191
 1210SOL    HW2 3642   1.180   4.323   2.197
 1211SOL     OW 3643   0.307   3.937   3.093
 1211SOL    HW1 3644   0.284   3.974   3.183
 1211SOL    HW2 3645   0.277   3.842   3.087
 1212SOL     OW 3646   0.732   4.358   2.926
 1212SOL    HW1 3647   0.791   4.332   2.850
 1212SOL    HW2 3648   0.704   4.454   2.915
 1213SOL     OW 3649   1.728   4.659   3.716
 1213SOL    HW1 3650   1.682   4.652   3.627
 1213SOL    HW2 3651   1.666   4.703   3.782
 1214SOL     OW 3652   0.307   3.787   2.480
 1214SOL    HW1 3653   0.296   3.881   2.513
 1214SOL    HW2 3654   0.302   3.724   2.557
 1215SOL     OW 3655   1.622   4.091   2.236
 1215SOL    HW1 3656   1.624   4.015   2.300
 1215SOL    HW2 3657   1.574   4.168   2.276
 1216SOL     OW 3658   1.023   4.490   2.828
 1216SOL    HW1 3659   1.038   4.511   2.924
 1216SOL    HW2 3660   0.993   4.395   2.819
 1217SOL     OW 3661   1.540   3.998   1.987
 1217SOL    HW1 3662   1.479   3.923   2.010
 1217SOL    HW2 3663   1.562   4.050   2.070
 1218SOL     OW 3664   0.319   4.534   2.811
 1218SOL    HW1 3665   0.412   4.570   2.816
 1218SOL    HW2 3666   0.313   4.449   2.863
 1219SOL     OW 3667   0.339   4.233   2.868
 1219SOL    HW1 3668   0.287   4.150   2.851
 1219SOL    HW2 3669   0.416   4.238   2.804
 1220SOL     OW 3670   1.138   4.104   3.540
 1220SOL    HW1 3671   1.093   4.167   3.604
 1220SOL    HW2 3672   1.231   4.135   3.523
 1221SOL     OW 3673   1.160   3.931   3.339
 1221SOL    HW1 3674   1.160   3.995   3.416
 1221SOL    HW2 3675   1.188   3.979   3.256
 1222SOL     OW 3676   1.002   4.520   3.100
 1222SOL    HW1 3677   1.043   4.488   3.186
 1222SOL    HW2 3678   0.906   4.493   3.097
 1223SOL     OW 3679   0.040   4.268   2.976
 1223SOL    HW1 3680   0.125   4.235   2.935
 1223SOL    HW2 3681   0.053   4.283   3.074
 1224SOL     OW 3682   0.189   4.244   3.584
 1224SOL    HW1 3683   0.248   4.204   3.514
 1224SOL    HW2 3684   0.131   4.315   3.543
 1225SOL     OW 3685   0.815   4.296   2.187
 1225SOL    HW1 3686   0.822   4.207   2.141
 1225SOL    HW2 3687   0.721   4.330   2.179
 1226SOL     OW 3688   1.657   4.328   3.068
 1226SOL    HW1 3689   1.619   4.259   3.130
 1226SOL    HW2 3690   1.739   4.292   3.024
 1227SOL     OW 3691   0.671   4.188   3.131
 1227SOL    HW1 3692   0.637   4.099   3.101
 1227SOL    HW2 3693   0.697   4.242   3.051
 1228SOL     OW 3694   0.473   4.224   2.053
 1228SOL    HW1 3695   0.534   4.304   2.057
 1228SOL    HW2 3696   0.378   4.255   2.060
 1229SOL     OW 3697   1.726   3.859   2.385
 1229SOL    HW1 3698   1.799   3.842   2.318
 1229SOL    HW2 3699   1.695   3.772   2.423
 1230SOL     OW 3700   1.280   4.651   2.534
 1230SOL    HW1 3701   1.340   4.570   2.536
 1230SOL    HW2 3702   1.320   4.720   2.474
 1231SOL     OW 3703   1.841   3.899   2.825
 1231SOL    HW1 3704   1.880   3.814   2.789
 1231SOL    HW2 3705   1.743   3.901   2.806
 1232SOL     OW 3706   0.263   4.050   2.582
 1232SOL    HW1 3707   0.184   4.101   2.548
 1232SOL    HW2 3708   0.254   4.035   2.680
 1233SOL     OW 3709   0.916   4.634   2.153
 1233SOL    HW1 3710   0.979   4.672   2.085
 1233SOL    HW2 3711   0.956   4.551   2.192
 1234SOL     OW 3712   1.014   3.960   2.833
 1234SOL    HW1 3713   1.006   3.924   2.740
 1234SOL    HW2 3714   1.012   3.884   2.898
 1235SOL     OW 3715   1.709   4.109   3.243
 1235SOL    HW1 3716   1.782   4.178   3.247
 1235SOL    HW2 3717   1.737   4.034   3.184
 1236SOL     OW 3718   0.105   4.737   3.588
 1236SOL    HW1 3719   0.028   4.704   3.642
 1236SOL    HW2 3720   0.190   4.707   3.630
 1237SOL     OW 3721   0.672   3.927   3.351
 1237SOL    HW1 3722   0.762   3.911   3.311
 1237SOL    HW2 3723   0.680   3.932   3.450
 1238SOL     OW 3724   0.075   4.069   1.895
 1238SOL    HW1 3725  -0.017   4.041   1.866
 1238SOL    HW2 3726   0.106   4.146   1.839
 1239SOL     OW 3727   1.440   4.580   3.260
 1239SOL    HW1 3728   1.383   4.632   3.197
 1239SOL    HW2 3729   1.536   4.592   3.236
 1240SOL     OW 3730   0.072   3.890   2.180
 1240SOL    HW1 3731   0.055   3.973   2.126
 1240SOL    HW2 3732   0.162   3.853   2.158
 1241SOL     OW 3733   0.613   4.566   3.293
 1241SOL    HW1 3734   0.669   4.647   3.276
 1241SOL    HW2 3735   0.672   4.486   3.296
 1242SOL     OW 3736   0.716   4.289   3.570
 1242SOL    HW1 3737   0.735   4.354   3.644
 1242SOL    HW2 3738   0.776   4.209   3.579
 1243SOL     OW 3739   1.674   4.607   3.116
 1243SOL    HW1 3740   1.647   4.518   3.079
 1243SOL    HW2 3741   1.675   4.675   3.043
 1244SOL     OW 3742   1.225   4.049   2.311
 1244SOL    HW1 3743   1.290   3.975   2.300
 1244SOL    HW2 3744   1.245   4.099   2.395
 1245SOL     OW 3745   0.594   4.469   2.514
 1245SOL    HW1 3746   0.644   4.554   2.495
 1245SOL    HW2 3747   0.506   4.471   2.466
 1246SOL     OW 3748   1.777   4.066   3.504
 1246SOL    HW1 3749   1.760   4.097   3.410
 1246SOL    HW2 3750   1.693   4.029   3.542
 1247SOL     OW 3751   1.824   3.916   3.089
 1247SOL    HW1 3752   1.820   3.826   3.133
 1247SOL    HW2 3753   1.827   3.905   2.990
 1248SOL     OW 3754   0.428   4.148   2.382
 1248SOL    HW1 3755   0.458   4.076   2.320
 1248SOL    HW2 3756   0.389   4.108   2.465
 1249SOL     OW 3757   0.317   4.271   3.142
 1249SOL    HW1 3758   0.355   4.212   3.214
 1249SOL    HW2 3759   0.357   4.245   3.054
 1250SOL     OW 3760   1.424   3.938   2.974
 1250SOL    HW1 3761   1.476   3.873   3.029
 1250SOL    HW2 3762   1.375   4.001   3.035
 1251SOL     OW 3763   1.001   3.758   3.016
 1251SOL    HW1 3764   0.938   3.686   2.985
 1251SOL    HW2 3765   1.094   3.722   3.016
 1252SOL     OW 3766   1.352   3.776   2.030
 1252SOL    HW1 3767   1.387   3.735   1.946
 1252SOL    HW2 3768   1.262   3.738   2.050
 1253SOL     OW 3769   1.300   4.177   2.553
 1253SOL    HW1 3770   1.241   4.257   2.557
 1253SOL    HW2 3771   1.315   4.142   2.646
 1254SOL     OW 3772   1.593   3.945   2.744
 1254SOL    HW1 3773   1.509   3.944   2.798
 1254SOL    HW2 3774   1.595   4.028   2.688
 1255SOL     OW 3775   0.230   4.352   3.837
 1255SOL    HW1 3776   0.137   4.350   3.874
 1255SOL    HW2 3777   0.231   4.313   3.745
 1256SOL     OW 3778   0.019   4.092   4.371
 1256SOL    HW1 3779  -0.063   4.135   4.410
 1256SOL    HW2 3780  -0.009   4.019   4.308
 1257SOL     OW 3781   1.135   4.427   4.441
 1257SOL    HW1 3782   1.192   4.505   4.416
 1257SOL    HW2 3783   1.075   4.453   4.517
 1258SOL     OW 3784   1.755   4.331   3.955
 1258SOL    HW1 3785   1.743   4.318   3.856
 1258SOL    HW2 3786   1.725   4.250   4.004
 1259SOL     OW 3787   0.685   4.736   4.389
 1259SOL    HW1 3788   0.754   4.720   4.459
 1259SOL    HW2 3789   0.612   4.793   4.427
 1260SOL     OW 3790   1.603   4.171   4.461
 1260SOL    HW1 3791   1.529   4.217   4.411
 1260SOL    HW2 3792   1.654   4.239   4.514
 1261SOL     OW 3793   0.122   4.367   4.287
 1261SOL    HW1 3794   0.077   4.279   4.304
 1261SOL    HW2 3795   0.121   4.421   4.371
 1262SOL     OW 3796   0.809   3.728   4.226
 1262SOL    HW1 3797   0.849   3.819   4.217
 1262SOL    HW2 3798   0.709   3.736   4.232
 1263SOL     OW 3799   0.598   4.453   3.994
 1263SOL    HW1 3800   0.622   4.522   3.926
 1263SOL    HW2 3801   0.520   4.486   4.048
 1264SOL     OW 3802   1.281   4.069   4.668
 1264SOL    HW1 3803   1.195   4.019   4.655
 1264SOL    HW2 3804   1.343   4.015   4.724
 1265SOL     OW 3805   1.041   4.425   4.153
 1265SOL    HW1 3806   1.067   4.421   4.249
 1265SOL    HW2 3807   0.956   4.374   4.139
 1266SOL     OW 3808   0.076   4.535   4.513
 1266SOL    HW1 3809   0.175   4.523   4.522
 1266SOL    HW2 3810   0.052   4.630   4.534
 1267SOL     OW 3811   0.865   4.072   3.919
 1267SOL    HW1 3812   0.924   4.135   3.870
 1267SOL    HW2 3813   0.884   3.978   3.890
 1268SOL     OW 3814   0.550   3.920   4.609
 1268SOL    HW1 3815   0.545   3.915   4.709
 1268SOL    HW2 3816   0.552   4.016   4.580
 1269SOL     OW 3817   1.458   4.459   4.452
 1269SOL    HW1 3818   1.453   4.394   4.527
 1269SOL    HW2 3819   1.538   4.518   4.465
 1270SOL     OW 3820   1.400   3.831   4.150
 1270SOL    HW1 3821   1.376   3.794   4.060
 1270SOL    HW2 3822   1.499   3.847   4.154
 1271SOL     OW 3823   0.382   4.424   4.204
 1271SOL    HW1 3824   0.427   4.334   4.201
 1271SOL    HW2 3825   0.288   4.413   4.237
 1272SOL     OW 3826   0.614   3.846   3.841
 1272SOL    HW1 3827   0.712   3.824   3.848
 1272SOL    HW2 3828   0.583   3.829   3.748
 1273SOL     OW 3829   0.539   3.788   4.236
 1273SOL    HW1 3830   0.458   3.789   4.294
 1273SOL    HW2 3831   0.542   3.871   4.181
 1274SOL     OW 3832   0.297   3.759   3.895
 1274SOL    HW1 3833   0.346   3.843   3.874
 1274SOL    HW2 3834   0.359   3.694   3.940
 1275SOL     OW 3835   0.935   3.960   4.204
 1275SOL    HW1 3836   0.887   4.001   4.126
 1275SOL    HW2 3837   1.034   3.958   4.185
 1276SOL     OW 3838   0.459   4.876   4.465
 1276SOL    HW1 3839   0.388   4.849   4.530
 1276SOL    HW2 3840   0.433   4.848   4.372
 1277SOL     OW 3841   1.032   4.273   3.740
 1277SOL    HW1 3842   0.991   4.355   3.701
 1277SOL    HW2 3843   1.096   4.299   3.813
 1278SOL     OW 3844   0.866   4.178   4.366
 1278SOL    HW1 3845   0.834   4.250   4.304
 1278SOL    HW2 3846   0.890   4.097   4.313
 1279SOL     OW 3847   1.017   3.763   4.477
 1279SOL    HW1 3848   0.945   3.768   4.408
 1279SOL    HW2 3849   0.993   3.694   4.546
 1280SOL     OW 3850   1.429   4.897   4.591
 1280SOL    HW1 3851   1.374   4.813   4.584
 1280SOL    HW2 3852   1.455   4.926   4.499
 1281SOL     OW 3853   1.857   4.557   4.101
 1281SOL    HW1 3854   1.899   4.493   4.165
 1281SOL    HW2 3855   1.819   4.506   4.023
 1282SOL     OW 3856   1.390   4.299   3.802
 1282SOL    HW1 3857   1.336   4.278   3.883
 1282SOL    HW2 3858   1.481   4.258   3.811
 1283SOL     OW 3859   0.527   3.980   4.052
 1283SOL    HW1 3860   0.554   3.921   3.977
 1283SOL    HW2 3861   0.527   4.075   4.021
 1284SOL     OW 3862   0.566   4.261   4.589
 1284SOL    HW1 3863   0.578   4.327   4.515
 1284SOL    HW2 3864   0.612   4.295   4.672
 1285SOL     OW 3865   1.582   4.363   4.196
 1285SOL    HW1 3866   1.551   4.424   4.269
 1285SOL    HW2 3867   1.632   4.415   4.127
 1286SOL     OW 3868   1.209   4.249   3.999
 1286SOL    HW1 3869   1.222   4.165   4.053
 1286SOL    HW2 3870   1.180   4.323   4.059
 1287SOL     OW 3871   0.307   3.787   4.342
 1287SOL    HW1 3872   0.296   3.881   4.375
 1287SOL    HW2 3873   0.302   3.724   4.419
 1288SOL     OW 3874   1.622   4.091   4.098
 1288SOL    HW1 3875   1.624   4.015   4.162
 1288SOL    HW2 3876   1.574   4.168   4.138
 1289SOL     OW 3877   1.540   3.998   3.849
 1289SOL    HW1 3878   1.479   3.923   3.872
 1289SOL    HW2 3879   1.562   4.050   3.932
 1290SOL     OW 3880   0.815   4.296   4.049
 1290SOL    HW1 3881   0.822   4.207   4.003
 1290SOL    HW2 3882   0.721   4.330   4.041
 1291SOL     OW 3883   0.473   4.224   3.915
 1291SOL    HW1 3884   0.534   4.304   3.919
 1291SOL    HW2 3885   0.378   4.255   3.922
 1292SOL     OW 3886   1.726   3.859   4.247
 1292SOL    HW1 3887   1.799   3.842   4.180
 1292SOL    HW2 3888   1.695   3.772   4.285
 1293SOL     OW 3889   1.280   4.651   4.396
 1293SOL    HW1 3890   1.340   4.570   4.398
 1293SOL    HW2 3891   1.320   4.720   4.336
 1294SOL     OW 3892   1.841   3.899   4.687
 1294SOL    HW1 3893   1.880   3.814   4.651
 1294SOL    HW2 3894   1.743   3.901   4.668
 1295SOL     OW 3895   0.263   4.050   4.444
 1295SOL    HW1 3896   0.184   4.101   4.410
 1295SOL    HW2 3897   0.254   4.035   4.542
 1296SOL     OW 3898   0.916   4.634   4.015
 1296SOL    HW1 3899   0.979   4.672   3.947
 1296SOL    HW2 3900   0.956   4.551   4.054
 1297SOL     OW 3901   0.075   4.069   3.757
 1297SOL    HW1 3902  -0.017   4.041   3.728
 1297SOL    HW2 3903   0.106   4.146   3.701
 1298SOL     OW 3904   0.072   3.890   4.042
 1298SOL    HW1 3905   0.055   3.973   3.988
 1298SOL    HW2 3906   0.162   3.853   4.020
 1299SOL     OW 3907   1.225   4.049   4.173
 1299SOL    HW1 3908   1.290   3.975   4.162
 1299SOL    HW2 3909   1.245   4.099   4.257
 1300SOL     OW 3910   0.594   4.469   4.376
 1300SOL    HW1 3911   0.644   4.554   4.357
 1300SOL    HW2 3912   0.506   4.471   4.328
 1301SOL     OW 3913   0.428   4.148   4.244
 1301SOL    HW1 3914   0.458   4.076   4.182
 1301SOL    HW2 3915   0.389   4.108   4.327
 1302SOL     OW 3916   1.352   3.776   3.892
 1302SOL    HW1 3917   1.387   3.735   3.808
 1302SOL    HW2 3918   1.262   3.738   3.912
 1303SOL     OW 3919   1.300   4.177   4.415
 1303SOL    HW1 3920   1.241   4.257   4.419
 1303SOL    HW2 3921   1.315   4.142   4.508
 1304SOL     OW 3922   2.092   0.628   0.113
 1304SOL    HW1 3923   1.999   0.626   0.150
 1304SOL    HW2 3924   2.093   0.589   0.021
 1305SOL     OW 3925   2.087   0.275   0.996
 1305SOL    HW1 3926   2.122   0.258   1.088
 1305SOL    HW2 3927   1.999   0.230   0.984
 1306SOL     OW 3928   1.881   0.368   0.647
 1306SOL    HW1 3929   1.799   0.411   0.686
 1306SOL    HW2 3930   1.853   0.295   0.584
 1307SOL     OW 3931   2.431   1.275   1.165
 1307SOL    HW1 3932   2.338   1.268   1.128
 1307SOL    HW2 3933   2.442   1.364   1.209
 1308SOL     OW 3934   3.417   1.511   0.703
 1308SOL    HW1 3935   3.360   1.495   0.784
 1308SOL    HW2 3936   3.358   1.521   0.623
 1309SOL     OW 3937   2.997   0.703   0.717
 1309SOL    HW1 3938   3.054   0.781   0.692
 1309SOL    HW2 3939   2.937   0.729   0.793
 1310SOL     OW 3940   3.617   0.607   0.231
 1310SOL    HW1 3941   3.605   0.594   0.132
 1310SOL    HW2 3942   3.587   0.526   0.280
 1311SOL     OW 3943   2.630   1.144   1.023
 1311SOL    HW1 3944   2.552   1.161   1.083
 1311SOL    HW2 3945   2.664   1.231   0.987
 1312SOL     OW 3946   2.712   0.798   1.823
 1312SOL    HW1 3947   2.708   0.874   1.888
 1312SOL    HW2 3948   2.734   0.834   1.732
 1313SOL     OW 3949   2.547   1.012   0.665
 1313SOL    HW1 3950   2.616   0.996   0.735
 1313SOL    HW2 3951   2.474   1.069   0.703
 1314SOL     OW 3952   2.548   1.161   1.803
 1314SOL    HW1 3953   2.608   1.240   1.817
 1314SOL    HW2 3954   2.462   1.192   1.762
 1315SOL     OW 3955   2.197   1.435   1.061
 1315SOL    HW1 3956   2.119   1.404   1.008
 1315SOL    HW2 3957   2.255   1.493   1.004
 1316SOL     OW 3958   3.322   1.505   1.339
 1316SOL    HW1 3959   3.346   1.599   1.365
 1316SOL    HW2 3960   3.306   1.451   1.421
 1317SOL     OW 3961   2.300   0.392   1.499
 1317SOL    HW1 3962   2.382   0.336   1.508
 1317SOL    HW2 3963   2.219   0.334   1.503
 1318SOL     OW 3964   3.465   0.447   0.737
 1318SOL    HW1 3965   3.391   0.493   0.687
 1318SOL    HW2 3966   3.516   0.515   0.790
 1319SOL     OW 3967   2.093   1.713   0.483
 1319SOL    HW1 3968   2.127   1.790   0.537
 1319SOL    HW2 3969   2.137   1.713   0.393
 1320SOL     OW 3970   2.989   1.341   1.690
 1320SOL    HW1 3971   3.036   1.341   1.778
 1320SOL    HW2 3972   2.941   1.254   1.679
 1321SOL     OW 3973   2.092   1.434   0.538
 1321SOL    HW1 3974   2.066   1.530   0.538
 1321SOL    HW2 3975   2.021   1.380   0.583
 1322SOL     OW 3976   2.102   1.091   0.886
 1322SOL    HW1 3977   2.116   1.007   0.938
 1322SOL    HW2 3978   2.047   1.155   0.941
 1323SOL     OW 3979   2.482   1.786   1.439
 1323SOL    HW1 3980   2.390   1.769   1.474
 1323SOL    HW2 3981   2.510   1.878   1.465
 1324SOL     OW 3982   2.468   0.964   0.123
 1324SOL    HW1 3983   2.475   1.048   0.069
 1324SOL    HW2 3984   2.514   0.977   0.211
 1325SOL     OW 3985   3.456   0.114   1.480
 1325SOL    HW1 3986   3.438   0.181   1.408
 1325SOL    HW2 3987   3.453   0.160   1.569
 1326SOL     OW 3988   1.984   0.643   0.563
 1326SOL    HW1 3989   1.939   0.555   0.580
 1326SOL    HW2 3990   1.983   0.697   0.647
 1327SOL     OW 3991   3.704   1.767   0.359
 1327SOL    HW1 3992   3.758   1.738   0.439
 1327SOL    HW2 3993   3.734   1.857   0.330
 1328SOL     OW 3994   1.889   1.596   0.117
 1328SOL    HW1 3995   1.870   1.500   0.138
 1328SOL    HW2 3996   1.856   1.654   0.192
 1329SOL     OW 3997   3.551   0.922   0.612
 1329SOL    HW1 3998   3.646   0.893   0.620
 1329SOL    HW2 3999   3.543   0.987   0.537
 1330SOL     OW 4000   3.503   1.108   0.432
 1330SOL    HW1 4001   3.589   1.110   0.380
 1330SOL    HW2 4002   3.517   1.155   0.520
 1331SOL     OW 4003   1.975   0.737   1.597
 1331SOL    HW1 4004   2.063   0.724   1.642
 1331SOL    HW2 4005   1.962   0.834   1.575
 1332SOL     OW 4006   2.475   1.365   0.726
 1332SOL    HW1 4007   2.426   1.278   0.735
 1332SOL    HW2 4008   2.452   1.408   0.639
 1333SOL     OW 4009   3.155   1.228   1.423
 1333SOL    HW1 4010   3.192   1.155   1.365
 1333SOL    HW2 4011   3.207   1.233   1.508
 1334SOL     OW 4012   2.671   0.004   0.502
 1334SOL    HW1 4013   2.711   0.095   0.493
 1334SOL    HW2 4014   2.571   0.012   0.508
 1335SOL     OW 4015   2.059   0.976   1.264
 1335SOL    HW1 4016   2.148   0.931   1.250
 1335SOL    HW2 4017   1.986   0.911   1.245
 1336SOL     OW 4018   3.387   0.999   0.190
 1336SOL    HW1 4019   3.324   0.923   0.203
 1336SOL    HW2 4020   3.435   1.017   0.276
 1337SOL     OW 4021   3.049   1.792   1.616
 1337SOL    HW1 4022   3.073   1.852   1.540
 1337SOL    HW2 4023   3.056   1.697   1.586
 1338SOL     OW 4024   2.179   0.251   1.801
 1338SOL    HW1 4025   2.250   0.322   1.807
 1338SOL    HW2 4026   2.091   0.290   1.829
 1339SOL     OW 4027   3.328   1.417   0.953
 1339SOL    HW1 4028   3.269   1.423   1.033
 1339SOL    HW2 4029   3.313   1.329   0.907
 1340SOL     OW 4030   3.529   1.714   0.572
 1340SOL    HW1 4031   3.488   1.691   0.484
 1340SOL    HW2 4032   3.511   1.640   0.637
 1341SOL     OW 4033   2.460   0.729   0.270
 1341SOL    HW1 4034   2.484   0.798   0.202
 1341SOL    HW2 4035   2.382   0.762   0.324
 1342SOL     OW 4036   3.143   0.345   0.944
 1342SOL    HW1 4037   3.057   0.295   0.931
 1342SOL    HW2 4038   3.205   0.291   1.000
 1343SOL     OW 4039   3.438   1.662   0.307
 1343SOL    HW1 4040   3.527   1.708   0.310
 1343SOL    HW2 4041   3.417   1.638   0.212
 1344SOL     OW 4042   2.669   0.605   1.465
 1344SOL    HW1 4043   2.622   0.602   1.554
 1344SOL    HW2 4044   2.618   0.550   1.399
 1345SOL     OW 4045   3.256   0.469   1.674
 1345SOL    HW1 4046   3.236   0.512   1.762
 1345SOL    HW2 4047   3.334   0.407   1.683
 1346SOL     OW 4048   2.835   0.890   1.572
 1346SOL    HW1 4049   2.881   0.806   1.543
 1346SOL    HW2 4050   2.779   0.924   1.497
 1347SOL     OW 4051   2.853   0.410   1.242
 1347SOL    HW1 4052   2.776   0.444   1.296
 1347SOL    HW2 4053   2.819   0.359   1.163
 1348SOL     OW 4054   2.903   0.701   0.429
 1348SOL    HW1 4055   2.929   0.697   0.525
 1348SOL    HW2 4056   2.818   0.650   0.415
 1349SOL     OW 4057   1.938   0.811   0.789
 1349SOL    HW1 4058   2.037   0.799   0.798
 1349SOL    HW2 4059   1.914   0.906   0.810
 1350SOL     OW 4060   1.992   1.821   1.571
 1350SOL    HW1 4061   1.982   1.806   1.670
 1350SOL    HW2 4062   1.906   1.857   1.535
 1351SOL     OW 4063   2.727   0.348   0.195
 1351SOL    HW1 4064   2.786   0.411   0.146
 1351SOL    HW2 4065   2.746   0.254   0.166
 1352SOL     OW 4066   3.581   0.585   1.831
 1352SOL    HW1 4067   3.555   0.674   1.795
 1352SOL    HW2 4068   3.579   0.517   1.758
 1353SOL     OW 4069   3.224   1.144   0.545
 1353SOL    HW1 4070   3.307   1.115   0.497
 1353SOL    HW2 4071   3.175   1.211   0.489
 1354SOL     OW 4072   2.412   0.196   0.885
 1354SOL    HW1 4073   2.407   0.191   0.985
 1354SOL    HW2 4074   2.414   0.292   0.856
 1355SOL     OW 4075   2.870   1.456   0.477
 1355SOL    HW1 4076   2.824   1.528   0.425
 1355SOL    HW2 4077   2.866   1.476   0.575
 1356SOL     OW 4078   2.213   1.801   0.853
 1356SOL    HW1 4079   2.263   1.715   0.859
 1356SOL    HW2 4080   2.278   1.878   0.850
 1357SOL     OW 4081   3.657   1.066   0.873
 1357SOL    HW1 4082   3.595   1.051   0.797
 1357SOL    HW2 4083   3.605   1.077   0.958
 1358SOL     OW 4084   3.089   1.550   1.506
 1358SOL    HW1 4085   3.095   1.473   1.570
 1358SOL    HW2 4086   3.037   1.524   1.426
 1359SOL     OW 4087   2.183   0.943   0.242
 1359SOL    HW1 4088   2.265   0.982   0.200
 1359SOL    HW2 4089   2.156   0.861   0.193
 1360SOL     OW 4090   3.320   0.735   0.728
 1360SOL    HW1 4091   3.315   0.670   0.803
 1360SOL    HW2 4092   3.400   0.794   0.741
 1361SOL     OW 4093   2.323   1.266   1.727
 1361SOL    HW1 4094   2.273   1.267   1.641
 1361SOL    HW2 4095   2.260   1.248   1.803
 1362SOL     OW 4096   2.973   1.776   0.237
 1362SOL    HW1 4097   2.913   1.714   0.287
 1362SOL    HW2 4098   3.004   1.732   0.152
 1363SOL     OW 4099   2.064   0.285   1.498
 1363SOL    HW1 4100   1.984   0.345   1.485
 1363SOL    HW2 4101   2.054   0.236   1.584
 1364SOL     OW 4102   3.494   1.377   0.081
 1364SOL    HW1 4103   3.462   1.471   0.071
 1364SOL    HW2 4104   3.418   1.314   0.069
 1365SOL     OW 4105   2.326   1.743   0.323
 1365SOL    HW1 4106   2.359   1.782   0.409
 1365SOL    HW2 4107   2.402   1.736   0.258
 1366SOL     OW 4108   3.262   0.107   0.426
 1366SOL    HW1 4109   3.238   0.070   0.336
 1366SOL    HW2 4110   3.361   0.123   0.430
 1367SOL     OW 4111   2.111   1.785   1.241
 1367SOL    HW1 4112   2.168   1.720   1.291
 1367SOL    HW2 4113   2.095   1.752   1.148
 1368SOL     OW 4114   2.802   1.698   0.904
 1368SOL    HW1 4115   2.882   1.641   0.925
 1368SOL    HW2 4116   2.753   1.658   0.827
 1369SOL     OW 4117   2.244   0.700   0.480
 1369SOL    HW1 4118   2.289   0.610   0.477
 1369SOL    HW2 4119   2.150   0.689   0.513
 1370SOL     OW 4120   3.409   0.222   1.729
 1370SOL    HW1 4121   3.404   0.259   1.821
 1370SOL    HW2 4122   3.337   0.153   1.717
 1371SOL     OW 4123   2.476   0.122   0.117
 1371SOL    HW1 4124   2.574   0.100   0.124
 1371SOL    HW2 4125   2.445   0.105   0.024
 1372SOL     OW 4126   2.643   0.264   1.749
 1372SOL    HW1 4127   2.710   0.203   1.792
 1372SOL    HW2 4128   2.570   0.283   1.814
 1373SOL     OW 4129   2.750   1.514   1.195
 1373SOL    HW1 4130   2.727   1.489   1.101
 1373SOL    HW2 4131   2.811   1.445   1.234
 1374SOL     OW 4132   3.213   0.590   1.433
 1374SOL    HW1 4133   3.241   0.547   1.518
 1374SOL    HW2 4134   3.238   0.686   1.434
 1375SOL     OW 4135   2.665   1.402   0.924
 1375SOL    HW1 4136   2.755   1.416   0.882
 1375SOL    HW2 4137   2.594   1.404   0.853
 1376SOL     OW 4138   2.784   0.503   0.899
 1376SOL    HW1 4139   2.759   0.494   0.803
 1376SOL    HW2 4140   2.832   0.421   0.930
 1377SOL     OW 4141   2.401   0.064   0.512
 1377SOL    HW1 4142   2.320   0.065   0.570
 1377SOL    HW2 4143   2.404   0.147   0.457
 1378SOL     OW 4144   3.296   1.188   0.041
 1378SOL    HW1 4145   3.328   1.112   0.098
 1378SOL    HW2 4146   3.204   1.215   0.071
 1379SOL     OW 4147   2.159   0.035   0.171
 1379SOL    HW1 4148   2.208   0.119   0.150
 1379SOL    HW2 4149   2.221  -0.030   0.216
 1380SOL     OW 4150   2.797   0.236   0.480
 1380SOL    HW1 4151   2.749   0.277   0.402
 1380SOL    HW2 4152   2.896   0.234   0.461
 1381SOL     OW 4153   2.938   0.683   1.464
 1381SOL    HW1 4154   2.858   0.622   1.467
 1381SOL    HW2 4155   3.019   0.630   1.440
 1382SOL     OW 4156   3.089   1.570   0.793
 1382SOL    HW1 4157   3.110   1.644   0.728
 1382SOL    HW2 4158   3.157   1.570   0.866
 1383SOL     OW 4159   2.321   1.152   0.741
 1383SOL    HW1 4160   2.250   1.125   0.806
 1383SOL    HW2 4161   2.295   1.124   0.648
 1384SOL     OW 4162   3.133   1.797   0.591
 1384SOL    HW1 4163   3.177   1.861   0.527
 1384SOL    HW2 4164   3.083   1.849   0.661
 1385SOL     OW 4165   2.894   0.549   0.016
 1385SOL    HW1 4166   2.853   0.631  -0.023
 1385SOL    HW2 4167   2.958   0.575   0.089
 1386SOL     OW 4168   1.940   0.556   1.386
 1386SOL    HW1 4169   2.032   0.555   1.345
 1386SOL    HW2 4170   1.934   0.630   1.453
 1387SOL     OW 4171   2.423   0.222   1.147
 1387SOL    HW1 4172   2.461   0.138   1.184
 1387SOL    HW2 4173   2.335   0.241   1.191
 1388SOL     OW 4174   2.728   0.454   0.642
 1388SOL    HW1 4175   2.696   0.526   0.580
 1388SOL    HW2 4176   2.752   0.373   0.589
 1389SOL     OW 4177   2.879   0.039   0.753
 1389SOL    HW1 4178   2.807   0.044   0.684
 1389SOL    HW2 4179   2.855  -0.030   0.822
 1390SOL     OW 4180   3.291   1.173   0.867
 1390SOL    HW1 4181   3.236   1.089   0.860
 1390SOL    HW2 4182   3.317   1.202   0.775
 1391SOL     OW 4183   3.328   0.590   0.992
 1391SOL    HW1 4184   3.298   0.495   0.999
 1391SOL    HW2 4185   3.401   0.606   1.058
 1392SOL     OW 4186   3.719   0.833   0.377
 1392SOL    HW1 4187   3.761   0.769   0.441
 1392SOL    HW2 4188   3.681   0.782   0.299
 1393SOL     OW 4189   2.350   1.385   0.174
 1393SOL    HW1 4190   2.263   1.370   0.221
 1393SOL    HW2 4191   2.333   1.411   0.079
 1394SOL     OW 4192   3.526   1.280   0.657
 1394SOL    HW1 4193   3.625   1.288   0.671
 1394SOL    HW2 4194   3.481   1.364   0.688
 1395SOL     OW 4195   3.252   0.575   0.078
 1395SOL    HW1 4196   3.198   0.554   0.159
 1395SOL    HW2 4197   3.343   0.534   0.087
 1396SOL     OW 4198   2.389   0.256   0.328
 1396SOL    HW1 4199   2.416   0.197   0.253
 1396SOL    HW2 4200   2.389   0.351   0.297
 1397SOL     OW 4201   3.616   1.223   1.588
 1397SOL    HW1 4202   3.707   1.184   1.575
 1397SOL    HW2 4203   3.624   1.319   1.612
 1398SOL     OW 4204   2.926   1.347   1.340
 1398SOL    HW1 4205   2.846   1.324   1.395
 1398SOL    HW2 4206   3.009   1.321   1.389
 1399SOL     OW 4207   3.454   1.629   1.625
 1399SOL    HW1 4208   3.481   1.663   1.535
 1399SOL    HW2 4209   3.533   1.591   1.671
 1400SOL     OW 4210   2.973   1.195   1.100
 1400SOL    HW1 4211   2.933   1.239   1.181
 1400SOL    HW2 4212   2.932   1.232   1.017
 1401SOL     OW 4213   3.500   1.099   1.079
 1401SOL    HW1 4214   3.505   1.180   1.138
 1401SOL    HW2 4215   3.414   1.101   1.028
 1402SOL     OW 4216   2.777   0.089   1.402
 1402SOL    HW1 4217   2.802   0.069   1.307
 1402SOL    HW2 4218   2.849   0.145   1.444
 1403SOL     OW 4219   2.842   1.116   1.719
 1403SOL    HW1 4220   2.743   1.122   1.729
 1403SOL    HW2 4221   2.865   1.036   1.663
 1404SOL     OW 4222   2.567   1.050   0.368
 1404SOL    HW1 4223   2.553   1.057   0.467
 1404SOL    HW2 4224   2.651   0.999   0.350
 1405SOL     OW 4225   2.272   0.813   1.251
 1405SOL    HW1 4226   2.358   0.825   1.301
 1405SOL    HW2 4227   2.230   0.726   1.278
 1406SOL     OW 4228   3.136   0.386   1.262
 1406SOL    HW1 4229   3.157   0.460   1.326
 1406SOL    HW2 4230   3.047   0.403   1.219
 1407SOL     OW 4231   1.926   1.564   1.331
 1407SOL    HW1 4232   1.880   1.646   1.297
 1407SOL    HW2 4233   2.024   1.583   1.340
 1408SOL     OW 4234   2.229   1.100   0.501
 1408SOL    HW1 4235   2.222   1.183   0.445
 1408SOL    HW2 4236   2.233   1.020   0.441
 1409SOL     OW 4237   2.428   0.537   0.865
 1409SOL    HW1 4238   2.440   0.603   0.791
 1409SOL    HW2 4239   2.474   0.571   0.948
 1410SOL     OW 4240   3.114   1.348   0.388
 1410SOL    HW1 4241   3.164   1.425   0.428
 1410SOL    HW2 4242   3.019   1.350   0.420
 1411SOL     OW 4243   3.134   1.445   1.142
 1411SOL    HW1 4244   3.181   1.458   1.229
 1411SOL    HW2 4245   3.068   1.371   1.151
 1412SOL     OW 4246   3.444   0.639   0.472
 1412SOL    HW1 4247   3.413   0.700   0.545
 1412SOL    HW2 4248   3.494   0.691   0.403
 1413SOL     OW 4249   2.216   1.510   1.329
 1413SOL    HW1 4250   2.195   1.466   1.242
 1413SOL    HW2 4251   2.313   1.536   1.332
 1414SOL     OW 4252   2.264   0.751   1.598
 1414SOL    HW1 4253   2.332   0.806   1.551
 1414SOL    HW2 4254   2.304   0.663   1.625
 1415SOL     OW 4255   3.449   0.779   1.670
 1415SOL    HW1 4256   3.357   0.817   1.665
 1415SOL    HW2 4257   3.509   0.826   1.605
 1416SOL     OW 4258   2.875   0.105   1.770
 1416SOL    HW1 4259   2.881   0.190   1.718
 1416SOL    HW2 4260   2.907   0.029   1.713
 1417SOL     OW 4261   2.366   0.050   1.740
 1417SOL    HW1 4262   2.324  -0.007   1.670
 1417SOL    HW2 4263   2.300   0.119   1.772
 1418SOL     OW 4264   2.435   0.870   1.029
 1418SOL    HW1 4265   2.479   0.959   1.020
 1418SOL    HW2 4266   2.372   0.870   1.106
 1419SOL     OW 4267   3.222   0.862   1.045
 1419SOL    HW1 4268   3.147   0.862   0.979
 1419SOL    HW2 4269   3.259   0.770   1.054
 1420SOL     OW 4270   3.071   0.525   0.275
 1420SOL    HW1 4271   3.084   0.441   0.329
 1420SOL    HW2 4272   3.042   0.599   0.335
 1421SOL     OW 4273   2.169   0.213   1.231
 1421SOL    HW1 4274   2.146   0.250   1.321
 1421SOL    HW2 4275   2.139   0.118   1.225
 1422SOL     OW 4276   1.899   1.310   1.282
 1422SOL    HW1 4277   1.952   1.261   1.350
 1422SOL    HW2 4278   1.921   1.408   1.287
 1423SOL     OW 4279   2.594   0.634   1.064
 1423SOL    HW1 4280   2.653   0.608   0.988
 1423SOL    HW2 4281   2.566   0.730   1.053
 1424SOL     OW 4282   3.590   0.935   1.854
 1424SOL    HW1 4283   3.544   0.928   1.765
 1424SOL    HW2 4284   3.528   0.979   1.920
 1425SOL     OW 4285   2.169   0.063   0.618
 1425SOL    HW1 4286   2.158   0.157   0.651
 1425SOL    HW2 4287   2.164   0.000   0.695
 1426SOL     OW 4288   3.484   0.367   0.374
 1426SOL    HW1 4289   3.486   0.291   0.438
 1426SOL    HW2 4290   3.436   0.444   0.414
 1427SOL     OW 4291   2.885   0.766   0.966
 1427SOL    HW1 4292   2.900   0.787   1.062
 1427SOL    HW2 4293   2.855   0.671   0.957
 1428SOL     OW 4294   2.842   1.573   1.700
 1428SOL    HW1 4295   2.822   1.617   1.612
 1428SOL    HW2 4296   2.881   1.482   1.684
 1429SOL     OW 4297   3.721   1.518   1.605
 1429SOL    HW1 4298   3.735   1.545   1.510
 1429SOL    HW2 4299   3.804   1.540   1.658
 1430SOL     OW 4300   2.212   0.898   1.804
 1430SOL    HW1 4301   2.288   0.942   1.852
 1430SOL    HW2 4302   2.247   0.851   1.722
 1431SOL     OW 4303   3.402   0.274   0.125
 1431SOL    HW1 4304   3.341   0.199   0.148
 1431SOL    HW2 4305   3.424   0.326   0.208
 1432SOL     OW 4306   3.165   0.838   0.042
 1432SOL    HW1 4307   3.199   0.745   0.057
 1432SOL    HW2 4308   3.183   0.865  -0.053
 1433SOL     OW 4309   2.930   1.333   0.849
 1433SOL    HW1 4310   2.937   1.249   0.794
 1433SOL    HW2 4311   2.992   1.402   0.813
 1434SOL     OW 4312   2.181   0.810   0.949
 1434SOL    HW1 4313   2.274   0.846   0.954
 1434SOL    HW2 4314   2.175   0.725   1.001
 1435SOL     OW 4315   2.201   0.509   1.006
 1435SOL    HW1 4316   2.149   0.426   0.989
 1435SOL    HW2 4317   2.278   0.514   0.942
 1436SOL     OW 4318   3.000   0.380   1.678
 1436SOL    HW1 4319   2.955   0.443   1.742
 1436SOL    HW2 4320   3.093   0.411   1.661
 1437SOL     OW 4321   3.022   0.207   1.477
 1437SOL    HW1 4322   3.022   0.271   1.554
 1437SOL    HW2 4323   3.050   0.255   1.394
 1438SOL     OW 4324   1.870   1.326   0.200
 1438SOL    HW1 4325   1.777   1.347   0.169
 1438SOL    HW2 4326   1.880   1.227   0.213
 1439SOL     OW 4327   1.950   1.801   0.927
 1439SOL    HW1 4328   1.908   1.715   0.900
 1439SOL    HW2 4329   2.044   1.804   0.893
 1440SOL     OW 4330   2.366   1.568   0.910
 1440SOL    HW1 4331   2.432   1.642   0.919
 1440SOL    HW2 4332   2.410   1.489   0.868
 1441SOL     OW 4333   2.864   0.796   1.238
 1441SOL    HW1 4334   2.905   0.764   1.324
 1441SOL    HW2 4335   2.768   0.769   1.235
 1442SOL     OW 4336   1.902   0.544   1.114
 1442SOL    HW1 4337   1.987   0.511   1.073
 1442SOL    HW2 4338   1.915   0.559   1.212
 1443SOL     OW 4339   2.051   0.520   1.722
 1443SOL    HW1 4340   2.110   0.480   1.652
 1443SOL    HW2 4341   1.993   0.591   1.681
 1444SOL     OW 4342   3.231   0.950   1.660
 1444SOL    HW1 4343   3.270   1.039   1.680
 1444SOL    HW2 4344   3.241   0.930   1.563
 1445SOL     OW 4345   2.677   0.572   0.325
 1445SOL    HW1 4346   2.684   0.483   0.279
 1445SOL    HW2 4347   2.583   0.606   0.317
 1446SOL     OW 4348   3.519   0.604   1.206
 1446SOL    HW1 4349   3.481   0.535   1.268
 1446SOL    HW2 4350   3.601   0.568   1.162
 1447SOL     OW 4351   2.114   1.564   1.744
 1447SOL    HW1 4352   2.084   1.621   1.820
 1447SOL    HW2 4353   2.107   1.467   1.770
 1448SOL     OW 4354   2.533   0.464   1.269
 1448SOL    HW1 4355   2.499   0.375   1.239
 1448SOL    HW2 4356   2.559   0.518   1.189
 1449SOL     OW 4357   2.792   1.678   1.465
 1449SOL    HW1 4358   2.768   1.660   1.370
 1449SOL    HW2 4359   2.822   1.772   1.475
 1450SOL     OW 4360   2.335   0.500   0.191
 1450SOL    HW1 4361   2.396   0.580   0.195
 1450SOL    HW2 4362   2.240   0.531   0.198
 1451SOL     OW 4363   2.021   1.137   1.466
 1451SOL    HW1 4364   2.043   1.076   1.542
 1451SOL    HW2 4365   2.031   1.088   1.380
 1452SOL     OW 4366   3.209   1.059   1.234
 1452SOL    HW1 4367   3.233   0.996   1.160
 1452SOL    HW2 4368   3.119   1.099   1.216
 1453SOL     OW 4369   3.164   0.855   0.309
 1453SOL    HW1 4370   3.078   0.824   0.351
 1453SOL    HW2 4371   3.160   0.841   0.210
 1454SOL     OW 4372   3.621   1.747   1.154
 1454SOL    HW1 4373   3.682   1.777   1.081
 1454SOL    HW2 4374   3.583   1.658   1.132
 1455SOL     OW 4375   3.114   1.731   1.128
 1455SOL    HW1 4376   3.198   1.736   1.074
 1455SOL    HW2 4377   3.091   1.635   1.146
 1456SOL     OW 4378   1.945   1.258   1.022
 1456SOL    HW1 4379   1.940   1.257   1.122
 1456SOL    HW2 4380   1.862   1.217   0.984
 1457SOL     OW 4381   2.550   1.662   1.716
 1457SOL    HW1 4382   2.494   1.743   1.725
 1457SOL    HW2 4383   2.602   1.666   1.630
 1458SOL     OW 4384   2.765   0.086   0.133
 1458SOL    HW1 4385   2.816   0.087   0.047
 1458SOL    HW2 4386   2.821   0.044   0.204
 1459SOL     OW 4387   3.588   0.135   0.523
 1459SOL    HW1 4388   3.661   0.118   0.456
 1459SOL    HW2 4389   3.557   0.048   0.561
 1460SOL     OW 4390   3.250   1.573   0.477
 1460SOL    HW1 4391   3.317   1.585   0.403
 1460SOL    HW2 4392   3.210   1.662   0.500
 1461SOL     OW 4393   1.992   1.794   1.851
 1461SOL    HW1 4394   1.951   1.720   1.904
 1461SOL    HW2 4395   2.056   1.845   1.909
 1462SOL     OW 4396   3.142   0.927   0.672
 1462SOL    HW1 4397   3.202   0.846   0.674
 1462SOL    HW2 4398   3.182   0.996   0.612
 1463SOL     OW 4399   2.692   1.273   1.422
 1463SOL    HW1 4400   2.687   1.306   1.517
 1463SOL    HW2 4401   2.606   1.292   1.376
 1464SOL     OW 4402   2.534   1.616   0.154
 1464SOL    HW1 4403   2.543   1.626   0.055
 1464SOL    HW2 4404   2.494   1.527   0.175
 1465SOL     OW 4405   3.512   1.720   1.394
 1465SOL    HW1 4406   3.565   1.730   1.310
 1465SOL    HW2 4407   3.485   1.810   1.428
 1466SOL     OW 4408   3.703   0.175   0.963
 1466SOL    HW1 4409   3.742   0.090   0.927
 1466SOL    HW2 4410   3.605   0.177   0.944
 1467SOL     OW 4411   2.125   0.326   0.720
 1467SOL    HW1 4412   2.046   0.377   0.686
 1467SOL    HW2 4413   2.116   0.311   0.818
 1468SOL     OW 4414   3.056   1.612   0.031
 1468SOL    HW1 4415   3.062   1.519   0.068
 1468SOL    HW2 4416   2.997   1.612  -0.049
 1469SOL     OW 4417   2.684   1.002   1.372
 1469SOL    HW1 4418   2.724   1.001   1.280
 1469SOL    HW2 4419   2.694   1.094   1.412
 1470SOL     OW 4420   2.778   0.910   0.291
 1470SOL    HW1 4421   2.841   0.948   0.223
 1470SOL    HW2 4422   2.818   0.827   0.330
 1471SOL     OW 4423   3.366   1.607   0.044
 1471SOL    HW1 4424   3.274   1.644   0.051
 1471SOL    HW2 4425   3.404   1.627  -0.046
 1472SOL     OW 4426   2.234   1.288   1.490
 1472SOL    HW1 4427   2.221   1.381   1.456
 1472SOL    HW2 4428   2.150   1.236   1.477
 1473SOL     OW 4429   3.476   1.292   1.289
 1473SOL    HW1 4430   3.536   1.295   1.369
 1473SOL    HW2 4431   3.401   1.356   1.302
 1474SOL     OW 4432   2.901   1.098   0.696
 1474SOL    HW1 4433   2.831   1.051   0.750
 1474SOL    HW2 4434   2.960   1.030   0.653
 1475SOL     OW 4435   2.876   0.236   0.971
 1475SOL    HW1 4436   2.868   0.200   0.878
 1475SOL    HW2 4437   2.874   0.160   1.036
 1476SOL     OW 4438   2.452   1.487   0.491
 1476SOL    HW1 4439   2.494   1.429   0.421
 1476SOL    HW2 4440   2.408   1.566   0.447
 1477SOL     OW 4441   3.571   0.385   1.381
 1477SOL    HW1 4442   3.644   0.454   1.385
 1477SOL    HW2 4443   3.599   0.310   1.322
 1478SOL     OW 4444   2.117   1.348   0.290
 1478SOL    HW1 4445   2.021   1.349   0.263
 1478SOL    HW2 4446   2.129   1.401   0.374
 1479SOL     OW 4447   1.967   1.013   1.726
 1479SOL    HW1 4448   1.890   0.980   1.780
 1479SOL    HW2 4449   2.052   0.983   1.768
 1480SOL     OW 4450   2.534   0.203   1.489
 1480SOL    HW1 4451   2.624   0.187   1.449
 1480SOL    HW2 4452   2.542   0.208   1.588
 1481SOL     OW 4453   3.302   0.856   1.398
 1481SOL    HW1 4454   3.245   0.908   1.335
 1481SOL    HW2 4455   3.398   0.868   1.374
 1482SOL     OW 4456   1.934   0.166   0.318
 1482SOL    HW1 4457   1.917   0.249   0.264
 1482SOL    HW2 4458   2.024   0.129   0.296
 1483SOL     OW 4459   3.045   1.335   0.119
 1483SOL    HW1 4460   2.946   1.324   0.121
 1483SOL    HW2 4461   3.079   1.350   0.212
 1484SOL     OW 4462   2.475   0.842   1.431
 1484SOL    HW1 4463   2.531   0.923   1.414
 1484SOL    HW2 4464   2.534   0.762   1.434
 1485SOL     OW 4465   3.355   1.767   0.959
 1485SOL    HW1 4466   3.388   1.831   0.890
 1485SOL    HW2 4467   3.421   1.761   1.034
 1486SOL     OW 4468   2.578   0.565   1.708
 1486SOL    HW1 4469   2.597   0.630   1.782
 1486SOL    HW2 4470   2.638   0.485   1.717
 1487SOL     OW 4471   3.312   1.220   1.633
 1487SOL    HW1 4472   3.303   1.210   1.732
 1487SOL    HW2 4473   3.408   1.213   1.607
 1488SOL     OW 4474   2.252   1.741   1.560
 1488SOL    HW1 4475   2.161   1.782   1.558
 1488SOL    HW2 4476   2.245   1.647   1.592
 1489SOL     OW 4477   3.536   0.883   1.254
 1489SOL    HW1 4478   3.509   0.794   1.217
 1489SOL    HW2 4479   3.537   0.951   1.181
 1490SOL     OW 4480   3.087   0.325   0.449
 1490SOL    HW1 4481   3.152   0.251   0.438
 1490SOL    HW2 4482   3.107   0.375   0.533
 1491SOL     OW 4483   2.456   0.745   0.652
 1491SOL    HW1 4484   2.506   0.830   0.633
 1491SOL    HW2 4485   2.368   0.747   0.604
 1492SOL     OW 4486   3.639   0.342   1.642
 1492SOL    HW1 4487   3.622   0.373   1.548
 1492SOL    HW2 4488   3.555   0.305   1.680
 1493SOL     OW 4489   3.592   0.934   1.517
 1493SOL    HW1 4490   3.630   1.025   1.532
 1493SOL    HW2 4491   3.584   0.917   1.418
 1494SOL     OW 4492   2.721   1.374   0.016
 1494SOL    HW1 4493   2.675   1.389   0.104
 1494SOL    HW2 4494   2.765   1.459  -0.014
 1495SOL     OW 4495   2.523   1.790   0.953
 1495SOL    HW1 4496   2.477   1.878   0.940
 1495SOL    HW2 4497   2.622   1.802   0.946
 1496SOL     OW 4498   2.721   0.956   0.861
 1496SOL    HW1 4499   2.775   0.887   0.909
 1496SOL    HW2 4500   2.689   1.025   0.927
 1497SOL     OW 4501   2.945   0.984   0.087
 1497SOL    HW1 4502   2.922   1.037   0.005
 1497SOL    HW2 4503   3.026   0.928   0.068
 1498SOL     OW 4504   3.723   1.569   0.851
 1498SOL    HW1 4505   3.652   1.557   0.781
 1498SOL    HW2 4506   3.724   1.490   0.911
 1499SOL     OW 4507   2.083   1.314   1.844
 1499SOL    HW1 4508   2.018   1.241   1.823
 1499SOL    HW2 4509   2.087   1.328   1.942
 1500SOL     OW 4510   1.941   1.240   0.653
 1500SOL    HW1 4511   1.940   1.193   0.741
 1500SOL    HW2 4512   2.023   1.212   0.602
 1501SOL     OW 4513   2.534   1.391   1.624
 1501SOL    HW1 4514   2.456   1.341   1.662
 1501SOL    HW2 4515   2.531   1.486   1.655
 1502SOL     OW 4516   3.686   0.192   1.227
 1502SOL    HW1 4517   3.682   0.102   1.271
 1502SOL    HW2 4518   3.689   0.181   1.128
 1503SOL     OW 4519   2.290   0.424   0.520
 1503SOL    HW1 4520   2.320   0.352   0.458
 1503SOL    HW2 4521   2.251   0.384   0.603
 1504SOL     OW 4522   3.567   1.487   1.104
 1504SOL    HW1 4523   3.474   1.462   1.077
 1504SOL    HW2 4524   3.593   1.437   1.186
 1505SOL     OW 4525   2.179   0.547   1.280
 1505SOL    HW1 4526   2.217   0.488   1.352
 1505SOL    HW2 4527   2.219   0.521   1.192
 1506SOL     OW 4528   2.674   1.586   0.687
 1506SOL    HW1 4529   2.706   1.596   0.593
 1506SOL    HW2 4530   2.595   1.524   0.689
 1507SOL     OW 4531   3.286   0.214   1.112
 1507SOL    HW1 4532   3.338   0.149   1.167
 1507SOL    HW2 4533   3.237   0.277   1.173
 1508SOL     OW 4534   2.863   0.034   1.154
 1508SOL    HW1 4535   2.800  -0.038   1.123
 1508SOL    HW2 4536   2.956  -0.002   1.154
 1509SOL     OW 4537   2.632   1.330   0.301
 1509SOL    HW1 4538   2.586   1.243   0.318
 1509SOL    HW2 4539   2.723   1.327   0.342
 1510SOL     OW 4540   2.480   1.567   1.284
 1510SOL    HW1 4541   2.475   1.649   1.341
 1510SOL    HW2 4542   2.569   1.564   1.239
 1511SOL     OW 4543   3.214   0.052   0.168
 1511SOL    HW1 4544   3.249   0.011   0.084
 1511SOL    HW2 4545   3.124   0.014   0.188
 1512SOL     OW 4546   3.162   0.453   0.691
 1512SOL    HW1 4547   3.103   0.533   0.695
 1512SOL    HW2 4548   3.177   0.418   0.784
 1513SOL     OW 4549   3.455   0.221   0.882
 1513SOL    HW1 4550   3.371   0.220   0.936
 1513SOL    HW2 4551   3.457   0.304   0.826
 1514SOL     OW 4552   1.901   1.077   0.300
 1514SOL    HW1 4553   2.000   1.066   0.291
 1514SOL    HW2 4554   1.861   0.991   0.332
 1515SOL     OW 4555   2.737   1.646   0.337
 1515SOL    HW1 4556   2.660   1.611   0.283
 1515SOL    HW2 4557   2.705   1.717   0.399
 1516SOL     OW 4558   2.092   0.628   1.975
 1516SOL    HW1 4559   1.999   0.626   2.012
 1516SOL    HW2 4560   2.093   0.589   1.883
 1517SOL     OW 4561   2.087   0.275   2.858
 1517SOL    HW1 4562   2.122   0.258   2.950
 1517SOL    HW2 4563   1.999   0.230   2.846
 1518SOL     OW 4564   1.881   0.368   2.509
 1518SOL    HW1 4565   1.799   0.411   2.548
 1518SOL    HW2 4566   1.853   0.295   2.446
 1519SOL     OW 4567   2.431   1.275   3.027
 1519SOL    HW1 4568   2.338   1.268   2.990
 1519SOL    HW2 4569   2.442   1.364   3.071
 1520SOL     OW 4570   3.417   1.511   2.565
 1520SOL    HW1 4571   3.360   1.495   2.646
 1520SOL    HW2 4572   3.358   1.521   2.485
 1521SOL     OW 4573   2.997   0.703   2.579
 1521SOL    HW1 4574   3.054   0.781   2.554
 1521SOL    HW2 4575   2.937   0.729   2.655
 1522SOL     OW 4576   3.617   0.607   2.093
 1522SOL    HW1 4577   3.605   0.594   1.994
 1522SOL    HW2 4578   3.587   0.526   2.142
 1523SOL     OW 4579   2.630   1.144   2.885
 1523SOL    HW1 4580   2.552   1.161   2.945
 1523SOL    HW2 4581   2.664   1.231   2.849
 1524SOL     OW 4582   2.712   0.798   3.685
 1524SOL    HW1 4583   2.708   0.874   3.750
 1524SOL    HW2 4584   2.734   0.834   3.594
 1525SOL     OW 4585   2.547   1.012   2.527
 1525SOL    HW1 4586   2.616   0.996   2.597
 1525SOL    HW2 4587   2.474   1.069   2.565
 1526SOL     OW 4588   2.548   1.161   3.665
 1526SOL    HW1 4589   2.608   1.240   3.679
 1526SOL    HW2 4590   2.462   1.192   3.624
 1527SOL     OW 4591   2.197   1.435   2.923
 1527SOL    HW1 4592   2.119   1.404   2.870
 1527SOL    HW2 4593   2.255   1.493   2.866
 1528SOL     OW 4594   3.322   1.505   3.201
 1528SOL    HW1 4595   3.346   1.599   3.227
 1528SOL    HW2 4596   3.306   1.451   3.283
 1529SOL     OW 4597   2.300   0.392   3.361
 1529SOL    HW1 4598   2.382   0.336   3.370
 1529SOL    HW2 4599   2.219   0.334   3.365
 1530SOL     OW 4600   3.465   0.447   2.599
 1530SOL    HW1 4601   3.391   0.493   2.549
 1530SOL    HW2 4602   3.516   0.515   2.652
 1531SOL     OW 4603   2.093   1.713   2.345
 1531SOL    HW1 4604   2.127   1.790   2.399
 1531SOL    HW2 4605   2.137   1.713   2.255
 1532SOL     OW 4606   2.989   1.341   3.552
 1532SOL    HW1 4607   3.036   1.341   3.640
 1532SOL    HW2 4608   2.941   1.254   3.541
 1533SOL     OW 4609   2.092   1.434   2.400
 1533SOL    HW1 4610   2.066   1.530   2.400
 1533SOL    HW2 4611   2.021   1.380   2.445
 1534SOL     OW 4612   2.102   1.091   2.748
 1534SOL    HW1 4613   2.116   1.007   2.800
 1534SOL    HW2 4614   2.047   1.155   2.803
 1535SOL     OW 4615   2.482   1.786   3.301
 1535SOL    HW1 4616   2.390   1.769   3.336
 1535SOL    HW2 4617   2.510   1.878   3.327
 1536SOL     OW 4618   2.468   0.964   1.985
 1536SOL    HW1 4619   2.475   1.048   1.931
 1536SOL    HW2 4620   2.514   0.977   2.073
 1537SOL     OW 4621   3.456   0.114   3.342
 1537SOL    HW1 4622   3.438   0.181   3.270
 1537SOL    HW2 4623   3.453   0.160   3.431
 1538SOL     OW 4624   1.984   0.643   2.425
 1538SOL    HW1 4625   1.939   0.555   2.442
 1538SOL    HW2 4626   1.983   0.697   2.509
 1539SOL     OW 4627   3.704   1.767   2.221
 1539SOL    HW1 4628   3.758   1.738   2.301
 1539SOL    HW2 4629   3.734   1.857   2.192
 1540SOL     OW 4630   1.889   1.596   1.979
 1540SOL    HW1 4631   1.870   1.500   2.000
 1540SOL    HW2 4632   1.856   1.654   2.054
 1541SOL     OW 4633   3.551   0.922   2.474
 1541SOL    HW1 4634   3.646   0.893   2.482
 1541SOL    HW2 4635   3.543   0.987   2.399
 1542SOL     OW 4636   3.503   1.108   2.294
 1542SOL    HW1 4637   3.589   1.110   2.242
 1542SOL    HW2 4638   3.517   1.155   2.382
 1543SOL     OW 4639   1.975   0.737   3.459
 1543SOL    HW1 4640   2.063   0.724   3.504
 1543SOL    HW2 4641   1.962   0.834   3.437
 1544SOL     OW 4642   2.475   1.365   2.588
 1544SOL    HW1 4643   2.426   1.278   2.597
 1544SOL    HW2 4644   2.452   1.408   2.501
 1545SOL     OW 4645   3.155   1.228   3.285
 1545SOL    HW1 4646   3.192   1.155   3.227
 1545SOL    HW2 4647   3.207   1.233   3.370
 1546SOL     OW 4648   2.671   0.004   2.364
 1546SOL    HW1 4649   2.711   0.095   2.355
 1546SOL    HW2 4650   2.571   0.012   2.370
 1547SOL     OW 4651   2.059   0.976   3.126
 1547SOL    HW1 4652   2.148   0.931   3.112
 1547SOL    HW2 4653   1.986   0.911   3.107
 1548SOL     OW 4654   3.387   0.999   2.052
 1548SOL    HW1 4655   3.324   0.923   2.065
 1548SOL    HW2 4656   3.435   1.017   2.138
 1549SOL     OW 4657   3.049   1.792   3.478
 1549SOL    HW1 4658   3.073   1.852   3.402
 1549SOL    HW2 4659   3.056   1.697   3.448
 1550SOL     OW 4660   2.179   0.251   3.663
 1550SOL    HW1 4661   2.250   0.322   3.669
 1550SOL    HW2 4662   2.091   0.290   3.691
 1551SOL     OW 4663   3.328   1.417   2.815
 1551SOL    HW1 4664   3.269   1.423   2.895
 1551SOL    HW2 4665   3.313   1.329   2.769
 1552SOL     OW 4666   3.529   1.714   2.434
 1552SOL    HW1 4667   3.488   1.691   2.346
 1552SOL    HW2 4668   3.511   1.640   2.499
 1553SOL     OW 4669   2.460   0.729   2.132
 1553SOL    HW1 4670   2.484   0.798   2.064
 1553SOL    HW2 4671   2.382   0.762   2.186
 1554SOL     OW 4672   3.143   0.345   2.806
 1554SOL    HW1 4673   3.057   0.295   2.793
 1554SOL    HW2 4674   3.205   0.291   2.862
 1555SOL     OW 4675   3.438   1.662   2.169
 1555SOL    HW1 4676   3.527   1.708   2.172
 1555SOL    HW2 4677   3.417   1.638   2.074
 1556SOL     OW 4678   2.669   0.605   3.327
 1556SOL    HW1 4679   2.622   0.602   3.416
 1556SOL    HW2 4680   2.618   0.550   3.261
 1557SOL     OW 4681   3.256   0.469   3.536
 1557SOL    HW1 4682   3.236   0.512   3.624
 1557SOL    HW2 4683   3.334   0.407   3.545
 1558SOL     OW 4684   2.835   0.890   3.434
 1558SOL    HW1 4685   2.881   0.806   3.405
 1558SOL    HW2 4686   2.779   0.924   3.359
 1559SOL     OW 4687   2.853   0.410   3.104
 1559SOL    HW1 4688   2.776   0.444   3.158
 1559SOL    HW2 4689   2.819   0.359   3.025
 1560SOL     OW 4690   2.903   0.701   2.291
 1560SOL    HW1 4691   2.929   0.697   2.387
 1560SOL    HW2 4692   2.818   0.650   2.277
 1561SOL     OW 4693   1.938   0.811   2.651
 1561SOL    HW1 4694   2.037   0.799   2.660
 1561SOL    HW2 4695   1.914   0.906   2.672
 1562SOL     OW 4696   1.992   1.821   3.433
 1562SOL    HW1 4697   1.982   1.806   3.532
 1562SOL    HW2 4698   1.906   1.857   3.397
 1563SOL     OW 4699   2.727   0.348   2.057
 1563SOL    HW1 4700   2.786   0.411   2.008
 1563SOL    HW2 4701   2.746   0.254   2.028
 1564SOL     OW 4702   3.581   0.585   3.693
 1564SOL    HW1 4703   3.555   0.674   3.657
 1564SOL    HW2 4704   3.579   0.517   3.620
 1565SOL     OW 4705   3.224   1.144   2.407
 1565SOL    HW1 4706   3.307   1.115   2.359
 1565SOL    HW2 4707   3.175   1.211   2.351
 1566SOL     OW 4708   2.412   0.196   2.747
 1566SOL    HW1 4709   2.407   0.191   2.847
 1566SOL    HW2 4710   2.414   0.292   2.718
 1567SOL     OW 4711   2.870   1.456   2.339
 1567SOL    HW1 4712   2.824   1.528   2.287
 1567SOL    HW2 4713   2.866   1.476   2.437
 1568SOL     OW 4714   2.213   1.801   2.715
 1568SOL    HW1 4715   2.263   1.715   2.721
 1568SOL    HW2 4716   2.278   1.878   2.712
 1569SOL     OW 4717   3.657   1.066   2.735
 1569SOL    HW1 4718   3.595   1.051   2.659
 1569SOL    HW2 4719   3.605   1.077   2.820
 1570SOL     OW 4720   3.089   1.550   3.368
 1570SOL    HW1 4721   3.095   1.473   3.432
 1570SOL    HW2 4722   3.037   1.524   3.288
 1571SOL     OW 4723   2.183   0.943   2.104
 1571SOL    HW1 4724   2.265   0.982   2.062
 1571SOL    HW2 4725   2.156   0.861   2.055
 1572SOL     OW 4726   3.320   0.735   2.590
 1572SOL    HW1 4727   3.315   0.670   2.665
 1572SOL    HW2 4728   3.400   0.794   2.603
 1573SOL     OW 4729   2.323   1.266   3.589
 1573SOL    HW1 4730   2.273   1.267   3.503
 1573SOL    HW2 4731   2.260   1.248   3.665
 1574SOL     OW 4732   2.973   1.776   2.099
 1574SOL    HW1 4733   2.913   1.714   2.149
 1574SOL    HW2 4734   3.004   1.732   2.014
 1575SOL     OW 4735   2.064   0.285   3.360
 1575SOL    HW1 4736   1.984   0.345   3.347
 1575SOL    HW2 4737   2.054   0.236   3.446
 1576SOL     OW 4738   3.494   1.377   1.943
 1576SOL    HW1 4739   3.462   1.471   1.933
 1576SOL    HW2 4740   3.418   1.314   1.931
 1577SOL     OW 4741   2.326   1.743   2.185
 1577SOL    HW1 4742   2.359   1.782   2.271
 1577SOL    HW2 4743   2.402   1.736   2.120
 1578SOL     OW 4744   3.262   0.107   2.288
 1578SOL    HW1 4745   3.238   0.070   2.198
 1578SOL    HW2 4746   3.361   0.123   2.292
 1579SOL     OW 4747   2.111   1.785   3.103
 1579SOL    HW1 4748   2.168   1.720   3.153
 1579SOL    HW2 4749   2.095   1.752   3.010
 1580SOL     OW 4750   2.802   1.698   2.766
 1580SOL    HW1 4751   2.882   1.641   2.787
 1580SOL    HW2 4752   2.753   1.658   2.689
 1581SOL     OW 4753   2.244   0.700   2.342
 1581SOL    HW1 4754   2.289   0.610   2.339
 1581SOL    HW2 4755   2.150   0.689   2.375
 1582SOL     OW 4756   3.409   0.222   3.591
 1582SOL    HW1 4757   3.404   0.259   3.683
 1582SOL    HW2 4758   3.337   0.153   3.579
 1583SOL     OW 4759   2.476   0.122   1.979
 1583SOL    HW1 4760   2.574   0.100   1.986
 1583SOL    HW2 4761   2.445   0.105   1.886
 1584SOL     OW 4762   2.643   0.264   3.611
 1584SOL    HW1 4763   2.710   0.203   3.654
 1584SOL    HW2 4764   2.570   0.283   3.676
 1585SOL     OW 4765   2.750   1.514   3.057
 1585SOL    HW1 4766   2.727   1.489   2.963
 1585SOL    HW2 4767   2.811   1.445   3.096
 1586SOL     OW 4768   3.213   0.590   3.295
 1586SOL    HW1 4769   3.241   0.547   3.380
 1586SOL    HW2 4770   3.238   0.686   3.296
 1587SOL     OW 4771   2.665   1.402   2.786
 1587SOL    HW1 4772   2.755   1.416   2.744
 1587SOL    HW2 4773   2.594   1.404   2.715
 1588SOL     OW 4774   2.784   0.503   2.761
 1588SOL    HW1 4775   2.759   0.494   2.665
 1588SOL    HW2 4776   2.832   0.421   2.792
 1589SOL     OW 4777   2.401   0.064   2.374
 1589SOL    HW1 4778   2.320   0.065   2.432
 1589SOL    HW2 4779   2.404   0.147   2.319
 1590SOL     OW 4780   3.296   1.188   1.903
 1590SOL    HW1 4781   3.328   1.112   1.960
 1590SOL    HW2 4782   3.204   1.215   1.933
 1591SOL     OW 4783   2.159   0.035   2.033
 1591SOL    HW1 4784   2.208   0.119   2.012
 1591SOL    HW2 4785   2.221  -0.030   2.078
 1592SOL     OW 4786   2.797   0.236   2.342
 1592SOL    HW1 4787   2.749   0.277   2.264
 1592SOL    HW2 4788   2.896   0.234   2.323
 1593SOL     OW 4789   2.938   0.683   3.326
 1593SOL    HW1 4790   2.858   0.622   3.329
 1593SOL    HW2 4791   3.019   0.630   3.302
 1594SOL     OW 4792   3.089   1.570   2.655
 1594SOL    HW1 4793   3.110   1.644   2.590
 1594SOL    HW2 4794   3.157   1.570   2.728
 1595SOL     OW 4795   2.321   1.152   2.603
 1595SOL    HW1 4796   2.250   1.125   2.668
 1595SOL    HW2 4797   2.295   1.124   2.510
 1596SOL     OW 4798   3.133   1.797   2.453
 1596SOL    HW1 4799   3.177   1.861   2.389
 1596SOL    HW2 4800   3.083   1.849   2.523
 1597SOL     OW 4801   2.894   0.549   1.878
 1597SOL    HW1 4802   2.853   0.631   1.839
 1597SOL    HW2 4803   2.958   0.575   1.951
 1598SOL     OW 4804   1.940   0.556   3.248
 1598SOL    HW1 4805   2.032   0.555   3.207
 1598SOL    HW2 4806   1.934   0.630   3.315
 1599SOL     OW 4807   2.423   0.222   3.009
 1599SOL    HW1 4808   2.461   0.138   3.046
 1599SOL    HW2 4809   2.335   0.241   3.053
 1600SOL     OW 4810   2.728   0.454   2.504
 1600SOL    HW1 4811   2.696   0.526   2.442
 1600SOL    HW2 4812   2.752   0.373   2.451
 1601SOL     OW 4813   2.879   0.039   2.615
 1601SOL    HW1 4814   2.807   0.044   2.546
 1601SOL    HW2 4815   2.855  -0.030   2.684
 1602SOL     OW 4816   3.291   1.173   2.729
 1602SOL    HW1 4817   3.236   1.089   2.722
 1602SOL    HW2 4818   3.317   1.202   2.637
 1603SOL     OW 4819   3.328   0.590   2.854
 1603SOL    HW1 4820   3.298   0.495   2.861
 1603SOL    HW2 4821   3.401   0.606   2.920
 1604SOL     OW 4822   3.719   0.833   2.239
 1604SOL    HW1 4823   3.761   0.769   2.303
 1604SOL    HW2 4824   3.681   0.782   2.161
 1605SOL     OW 4825   2.350   1.385   2.036
 1605SOL    HW1 4826   2.263   1.370   2.083
 1605SOL    HW2 4827   2.333   1.411   1.941
 1606SOL     OW 4828   3.526   1.280   2.519
 1606SOL    HW1 4829   3.625   1.288   2.533
 1606SOL    HW2 4830   3.481   1.364   2.550
 1607SOL     OW 4831   3.252   0.575   1.940
 1607SOL    HW1 4832   3.198   0.554   2.021
 1607SOL    HW2 4833   3.343   0.534   1.949
 1608SOL     OW 4834   2.389   0.256   2.190
 1608SOL    HW1 4835   2.416   0.197   2.115
 1608SOL    HW2 4836   2.389   0.351   2.159
 1609SOL     OW 4837   3.616   1.223   3.450
 1609SOL    HW1 4838   3.707   1.184   3.437
 1609SOL    HW2 4839   3.624   1.319   3.474
 1610SOL     OW 4840   2.926   1.347   3.202
 1610SOL    HW1 4841   2.846   1.324   3.257
 1610SOL    HW2 4842   3.009   1.321   3.251
 1611SOL     OW 4843   3.454   1.629   3.487
 1611SOL    HW1 4844   3.481   1.663   3.397
 1611SOL    HW2 4845   3.533   1.591   3.533
 1612SOL     OW 4846   2.973   1.195   2.962
 1612SOL    HW1 4847   2.933   1.239   3.043
 1612SOL    HW2 4848   2.932   1.232   2.879
 1613SOL     OW 4849   3.500   1.099   2.941
 1613SOL    HW1 4850   3.505   1.180   3.000
 1613SOL    HW2 4851   3.414   1.101   2.890
 1614SOL     OW 4852   2.777   0.089   3.264
 1614SOL    HW1 4853   2.802   0.069   3.169
 1614SOL    HW2 4854   2.849   0.145   3.306
 1615SOL     OW 4855   2.842   1.116   3.581
 1615SOL    HW1 4856   2.743   1.122   3.591
 1615SOL    HW2 4857   2.865   1.036   3.525
 1616SOL     OW 4858   2.567   1.050   2.230
 1616SOL    HW1 4859   2.553   1.057   2.329
 1616SOL    HW2 4860   2.651   0.999   2.212
 1617SOL     OW 4861   2.272   0.813   3.113
 1617SOL    HW1 4862   2.358   0.825   3.163
 1617SOL    HW2 4863   2.230   0.726   3.140
 1618SOL     OW 4864   3.136   0.386   3.124
 1618SOL    HW1 4865   3.157   0.460   3.188
 1618SOL    HW2 4866   3.047   0.403   3.081
 1619SOL     OW 4867   1.926   1.564   3.193
 1619SOL    HW1 4868   1.880   1.646   3.159
 1619SOL    HW2 4869   2.024   1.583   3.202
 1620SOL     OW 4870   2.229   1.100   2.363
 1620SOL    HW1 4871   2.222   1.183   2.307
 1620SOL    HW2 4872   2.233   1.020   2.303
 1621SOL     OW 4873   2.428   0.537   2.727
 1621SOL    HW1 4874   2.440   0.603   2.653
 1621SOL    HW2 4875   2.474   0.571   2.810
 1622SOL     OW 4876   3.114   1.348   2.250
 1622SOL    HW1 4877   3.164   1.425   2.290
 1622SOL    HW2 4878   3.019   1.350   2.282
 1623SOL     OW 4879   3.134   1.445   3.004
 1623SOL    HW1 4880   3.181   1.458   3.091
 1623SOL    HW2 4881   3.068   1.371   3.013
 1624SOL     OW 4882   3.444   0.639   2.334
 1624SOL    HW1 4883   3.413   0.700   2.407
 1624SOL    HW2 4884   3.494   0.691   2.265
 1625SOL     OW 4885   2.216   1.510   3.191
 1625SOL    HW1 4886   2.195   1.466   3.104
 1625SOL    HW2 4887   2.313   1.536   3.194
 1626SOL     OW 4888   2.264   0.751   3.460
 1626SOL    HW1 4889   2.332   0.806   3.413
 1626SOL    HW2 4890   2.304   0.663   3.487
 1627SOL     OW 4891   3.449   0.779   3.532
 1627SOL    HW1 4892   3.357   0.817   3.527
 1627SOL    HW2 4893   3.509   0.826   3.467
 1628SOL     OW 4894   2.875   0.105   3.632
 1628SOL    HW1 4895   2.881   0.190   3.580
 1628SOL    HW2 4896   2.907   0.029   3.575
 1629SOL     OW 4897   2.366   0.050   3.602
 1629SOL    HW1 4898   2.324  -0.007   3.532
 1629SOL    HW2 4899   2.300   0.119   3.634
 1630SOL     OW 4900   2.435   0.870   2.891
 1630SOL    HW1 4901   2.479   0.959   2.882
 1630SOL    HW2 4902   2.372   0.870   2.968
 1631SOL     OW 4903   3.222   0.862   2.907
 1631SOL    HW1 4904   3.147   0.862   2.841
 1631SOL    HW2 4905   3.259   0.770   2.916
 1632SOL     OW 4906   3.071   0.525   2.137
 1632SOL    HW1 4907   3.084   0.441   2.191
 1632SOL    HW2 4908   3.042   0.599   2.197
 1633SOL     OW 4909   2.169   0.213   3.093
 1633SOL    HW1 4910   2.146   0.250   3.183
 1633SOL    HW2 4911   2.139   0.118   3.087
 1634SOL     OW 4912   1.899   1.310   3.144
 1634SOL    HW1 4913   1.952   1.261   3.212
 1634SOL    HW2 4914   1.921   1.408   3.149
 1635SOL     OW 4915   2.594   0.634   2.926
 1635SOL    HW1 4916   2.653   0.608   2.850
 1635SOL    HW2 4917   2.566   0.730   2.915
 1636SOL     OW 4918   3.590   0.935   3.716
 1636SOL    HW1 4919   3.544   0.928   3.627
 1636SOL    HW2 4920   3.528   0.979   3.782
 1637SOL     OW 4921   2.169   0.063   2.480
 1637SOL    HW1 4922   2.158   0.157   2.513
 1637SOL    HW2 4923   2.164   0.000   2.557
 1638SOL     OW 4924   3.484   0.367   2.236
 1638SOL    HW1 4925   3.486   0.291   2.300
 1638SOL    HW2 4926   3.436   0.444   2.276
 1639SOL     OW 4927   2.885   0.766   2.828
 1639SOL    HW1 4928   2.900   0.787   2.924
 1639SOL    HW2 4929   2.855   0.671   2.819
 1640SOL     OW 4930   2.842   1.573   3.562
 1640SOL    HW1 4931   2.822   1.617   3.474
 1640SOL    HW2 4932   2.881   1.482   3.546
 1641SOL     OW 4933   3.721   1.518   3.467
 1641SOL    HW1 4934   3.735   1.545   3.372
 1641SOL    HW2 4935   3.804   1.540   3.520
 1642SOL     OW 4936   2.212   0.898   3.666
 1642SOL    HW1 4937   2.288   0.942   3.714
 1642SOL    HW2 4938   2.247   0.851   3.584
 1643SOL     OW 4939   3.402   0.274   1.987
 1643SOL    HW1 4940   3.341   0.199   2.010
 1643SOL    HW2 4941   3.424   0.326   2.070
 1644SOL     OW 4942   3.165   0.838   1.904
 1644SOL    HW1 4943   3.199   0.745   1.919
 1644SOL    HW2 4944   3.183   0.865   1.809
 1645SOL     OW 4945   2.930   1.333   2.711
 1645SOL    HW1 4946   2.937   1.249   2.656
 1645SOL    HW2 4947   2.992   1.402   2.675
 1646SOL     OW 4948   2.181   0.810   2.811
 1646SOL    HW1 4949   2.274   0.846   2.816
 1646SOL    HW2 4950   2.175   0.725   2.863
 1647SOL     OW 4951   2.201   0.509   2.868
 1647SOL    HW1 4952   2.149   0.426   2.851
 1647SOL    HW2 4953   2.278   0.514   2.804
 1648SOL     OW 4954   3.000   0.380   3.540
 1648SOL    HW1 4955   2.955   0.443   3.604
 1648SOL    HW2 4956   3.093   0.411   3.523
 1649SOL     OW 4957   3.022   0.207   3.339
 1649SOL    HW1 4958   3.022   0.271   3.416
 1649SOL    HW2 4959   3.050   0.255   3.256
 1650SOL     OW 4960   1.870   1.326   2.062
 1650SOL    HW1 4961   1.777   1.347   2.031
 1650SOL    HW2 4962   1.880   1.227   2.075
 1651SOL     OW 4963   1.950   1.801   2.789
 1651SOL    HW1 4964   1.908   1.715   2.762
 1651SOL    HW2 4965   2.044   1.804   2.755
 1652SOL     OW 4966   2.366   1.568   2.772
 1652SOL    HW1 4967   2.432   1.642   2.781
 1652SOL    HW2 4968   2.410   1.489   2.730
 1653SOL     OW 4969   2.864   0.796   3.100
 1653SOL    HW1 4970   2.905   0.764   3.186
 1653SOL    HW2 4971   2.768   0.769   3.097
 1654SOL     OW 4972   1.902   0.544   2.976
 1654SOL    HW1 4973   1.987   0.511   2.935
 1654SOL    HW2 4974   1.915   0.559   3.074
 1655SOL     OW 4975   2.051   0.520   3.584
 1655SOL    HW1 4976   2.110   0.480   3.514
 1655SOL    HW2 4977   1.993   0.591   3.543
 1656SOL     OW 4978   3.231   0.950   3.522
 1656SOL    HW1 4979   3.270   1.039   3.542
 1656SOL    HW2 4980   3.241   0.930   3.425
 1657SOL     OW 4981   2.677   0.572   2.187
 1657SOL    HW1 4982   2.684   0.483   2.141
 1657SOL    HW2 4983   2.583   0.606   2.179
 1658SOL     OW 4984   3.519   0.604   3.068
 1658SOL    HW1 4985   3.481   0.535   3.130
 1658SOL    HW2 4986   3.601   0.568   3.024
 1659SOL     OW 4987   2.114   1.564   3.606
 1659SOL    HW1 4988   2.084   1.621   3.682
 1659SOL    HW2 4989   2.107   1.467   3.632
 1660SOL     OW 4990   2.533   0.464   3.131
 1660SOL    HW1 4991   2.499   0.375   3.101
 1660SOL    HW2 4992   2.559   0.518   3.051
 1661SOL     OW 4993   2.792   1.678   3.327
 1661SOL    HW1 4994   2.768   1.660   3.232
 1661SOL    HW2 4995   2.822   1.772   3.337
 1662SOL     OW 4996   2.335   0.500   2.053
 1662SOL    HW1 4997   2.396   0.580   2.057
 1662SOL    HW2 4998   2.240   0.531   2.060
 1663SOL     OW 4999   2.021   1.137   3.328
 1663SOL    HW1 5000   2.043   1.076   3.404
 1663SOL    HW2 5001   2.031   1.088   3.242
 1664SOL     OW 5002   3.209   1.059   3.096
 1664SOL    HW1 5003   3.233   0.996   3.022
 1664SOL    HW2 5004   3.119   1.099   3.078
 1665SOL     OW 5005   3.164   0.855   2.171
 1665SOL    HW1 5006   3.078   0.824   2.213
 1665SOL    HW2 5007   3.160   0.841   2.072
 1666SOL     OW 5008   3.621   1.747   3.016
 1666SOL    HW1 5009   3.682   1.777   2.943
 1666SOL    HW2 5010   3.583   1.658   2.994
 1667SOL     OW 5011   3.114   1.731   2.990
 1667SOL    HW1 5012   3.198   1.736   2.936
 1667SOL    HW2 5013   3.091   1.635   3.008
 1668SOL     OW 5014   1.945   1.258   2.884
 1668SOL    HW1 5015   1.940   1.257   2.984
 1668SOL    HW2 5016   1.862   1.217   2.846
 1669SOL     OW 5017   2.550   1.662   3.578
 1669SOL    HW1 5018   2.494   1.743   3.587
 1669SOL    HW2 5019   2.602   1.666   3.492
 1670SOL     OW 5020   3.588   0.135   2.385
 1670SOL    HW1 5021   3.661   0.118   2.318
 1670SOL    HW2 5022   3.557   0.048   2.423
 1671SOL     OW 5023   3.250   1.573   2.339
 1671SOL    HW1 5024   3.317   1.585   2.265
 1671SOL    HW2 5025   3.210   1.662   2.362
 1672SOL     OW 5026   1.992   1.794   3.713
 1672SOL    HW1 5027   1.951   1.720   3.766
 1672SOL    HW2 5028   2.056   1.845   3.771
 1673SOL     OW 5029   3.142   0.927   2.534
 1673SOL    HW1 5030   3.202   0.846   2.536
 1673SOL    HW2 5031   3.182   0.996   2.474
 1674SOL     OW 5032   2.692   1.273   3.284
 1674SOL    HW1 5033   2.687   1.306   3.379
 1674SOL    HW2 5034   2.606   1.292   3.238
 1675SOL     OW 5035   2.534   1.616   2.016
 1675SOL    HW1 5036   2.543   1.626   1.917
 1675SOL    HW2 5037   2.494   1.527   2.037
 1676SOL     OW 5038   3.512   1.720   3.256
 1676SOL    HW1 5039   3.565   1.730   3.172
 1676SOL    HW2 5040   3.485   1.810   3.290
 1677SOL     OW 5041   3.703   0.175   2.825
 1677SOL    HW1 5042   3.742   0.090   2.789
 1677SOL    HW2 5043   3.605   0.177   2.806
 1678SOL     OW 5044   2.125   0.326   2.582
 1678SOL    HW1 5045   2.046   0.377   2.548
 1678SOL    HW2 5046   2.116   0.311   2.680
 1679SOL     OW 5047   3.056   1.612   1.893
 1679SOL    HW1 5048   3.062   1.519   1.930
 1679SOL    HW2 5049   2.997   1.612   1.813
 1680SOL     OW 5050   2.684   1.002   3.234
 1680SOL    HW1 5051   2.724   1.001   3.142
 1680SOL    HW2 5052   2.694   1.094   3.274
 1681SOL     OW 5053   2.778   0.910   2.153
 1681SOL    HW1 5054   2.841   0.948   2.085
 1681SOL    HW2 5055   2.818   0.827   2.192
 1682SOL     OW 5056   3.366   1.607   1.906
 1682SOL    HW1 5057   3.274   1.644   1.913
 1682SOL    HW2 5058   3.404   1.627   1.816
 1683SOL     OW 5059   2.234   1.288   3.352
 1683SOL    HW1 5060   2.221   1.381   3.318
 1683SOL    HW2 5061   2.150   1.236   3.339
 1684SOL     OW 5062   3.476   1.292   3.151
 1684SOL    HW1 5063   3.536   1.295   3.231
 1684SOL    HW2 5064   3.401   1.356   3.164
 1685SOL     OW 5065   2.901   1.098   2.558
 1685SOL    HW1 5066   2.831   1.051   2.612
 1685SOL    HW2 5067   2.960   1.030   2.515
 1686SOL     OW 5068   2.876   0.236   2.833
 1686SOL    HW1 5069   2.868   0.200   2.740
 1686SOL    HW2 5070   2.874   0.160   2.898
 1687SOL     OW 5071   2.452   1.487   2.353
 1687SOL    HW1 5072   2.494   1.429   2.283
 1687SOL    HW2 5073   2.408   1.566   2.309
 1688SOL     OW 5074   3.571   0.385   3.243
 1688SOL    HW1 5075   3.644   0.454   3.247
 1688SOL    HW2 5076   3.599   0.310   3.184
 1689SOL     OW 5077   2.117   1.348   2.152
 1689SOL    HW1 5078   2.021   1.349   2.125
 1689SOL    HW2 5079   2.129   1.401   2.236
 1690SOL     OW 5080   1.967   1.013   3.588
 1690SOL    HW1 5081   1.890   0.980   3.642
 1690SOL    HW2 5082   2.052   0.983   3.630
 1691SOL     OW 5083   2.534   0.203   3.351
 1691SOL    HW1 5084   2.624   0.187   3.311
 1691SOL    HW2 5085   2.542   0.208   3.450
 1692SOL     OW 5086   1.937   0.345   1.895
 1692SOL    HW1 5087   1.845   0.317   1.866
 1692SOL    HW2 5088   1.968   0.422   1.839
 1693SOL     OW 5089   3.302   0.856   3.260
 1693SOL    HW1 5090   3.245   0.908   3.197
 1693SOL    HW2 5091   3.398   0.868   3.236
 1694SOL     OW 5092   1.934   0.166   2.180
 1694SOL    HW1 5093   1.917   0.249   2.126
 1694SOL    HW2 5094   2.024   0.129   2.158
 1695SOL     OW 5095   3.045   1.335   1.981
 1695SOL    HW1 5096   2.946   1.324   1.983
 1695SOL    HW2 5097   3.079   1.350   2.074
 1696SOL     OW 5098   2.475   0.842   3.293
 1696SOL    HW1 5099   2.531   0.923   3.276
 1696SOL    HW2 5100   2.534   0.762   3.296
 1697SOL     OW 5101   3.355   1.767   2.821
 1697SOL    HW1 5102   3.388   1.831   2.752
 1697SOL    HW2 5103   3.421   1.761   2.896
 1698SOL     OW 5104   2.578   0.565   3.570
 1698SOL    HW1 5105   2.597   0.630   3.644
 1698SOL    HW2 5106   2.638   0.485   3.579
 1699SOL     OW 5107   3.312   1.220   3.495
 1699SOL    HW1 5108   3.303   1.210   3.594
 1699SOL    HW2 5109   3.408   1.213   3.469
 1700SOL     OW 5110   2.252   1.741   3.422
 1700SOL    HW1 5111   2.161   1.782   3.420
 1700SOL    HW2 5112   2.245   1.647   3.454
 1701SOL     OW 5113   3.536   0.883   3.116
 1701SOL    HW1 5114   3.509   0.794   3.079
 1701SOL    HW2 5115   3.537   0.951   3.043
 1702SOL     OW 5116   3.087   0.325   2.311
 1702SOL    HW1 5117   3.152   0.251   2.300
 1702SOL    HW2 5118   3.107   0.375   2.395
 1703SOL     OW 5119   2.456   0.745   2.514
 1703SOL    HW1 5120   2.506   0.830   2.495
 1703SOL    HW2 5121   2.368   0.747   2.466
 1704SOL     OW 5122   3.639   0.342   3.504
 1704SOL    HW1 5123   3.622   0.373   3.410
 1704SOL    HW2 5124   3.555   0.305   3.542
 1705SOL     OW 5125   3.592   0.934   3.379
 1705SOL    HW1 5126   3.630   1.025   3.394
 1705SOL    HW2 5127   3.584   0.917   3.280
 1706SOL     OW 5128   2.721   1.374   1.878
 1706SOL    HW1 5129   2.675   1.389   1.966
 1706SOL    HW2 5130   2.765   1.459   1.848
 1707SOL     OW 5131   2.523   1.790   2.815
 1707SOL    HW1 5132   2.477   1.878   2.802
 1707SOL    HW2 5133   2.622   1.802   2.808
 1708SOL     OW 5134   2.721   0.956   2.723
 1708SOL    HW1 5135   2.775   0.887   2.771
 1708SOL    HW2 5136   2.689   1.025   2.789
 1709SOL     OW 5137   2.945   0.984   1.949
 1709SOL    HW1 5138   2.922   1.037   1.867
 1709SOL    HW2 5139   3.026   0.928   1.930
 1710SOL     OW 5140   3.723   1.569   2.713
 1710SOL    HW1 5141   3.652   1.557   2.643
 1710SOL    HW2 5142   3.724   1.490   2.773
 1711SOL     OW 5143   2.083   1.314   3.706
 1711SOL    HW1 5144   2.018   1.241   3.685
 1711SOL    HW2 5145   2.087   1.328   3.804
 1712SOL     OW 5146   1.941   1.240   2.515
 1712SOL    HW1 5147   1.940   1.193   2.603
 1712SOL    HW2 5148   2.023   1.212   2.464
 1713SOL     OW 5149   2.534   1.391   3.486
 1713SOL    HW1 5150   2.456   1.341   3.524
 1713SOL    HW2 5151   2.531   1.486   3.517
 1714SOL     OW 5152   3.686   0.192   3.089
 1714SOL    HW1 5153   3.682   0.102   3.133
 1714SOL    HW2 5154   3.689   0.181   2.990
 1715SOL     OW 5155   2.290   0.424   2.382
 1715SOL    HW1 5156   2.320   0.352   2.320
 1715SOL    HW2 5157   2.251   0.384   2.465
 1716SOL     OW 5158   3.567   1.487   2.966
 1716SOL    HW1 5159   3.474   1.462   2.939
 1716SOL    HW2 5160   3.593   1.437   3.048
 1717SOL     OW 5161   2.179   0.547   3.142
 1717SOL    HW1 5162   2.217   0.488   3.214
 1717SOL    HW2 5163   2.219   0.521   3.054
 1718SOL     OW 5164   2.674   1.586   2.549
 1718SOL    HW1 5165   2.706   1.596   2.455
 1718SOL    HW2 5166   2.595   1.524   2.551
 1719SOL     OW 5167   3.286   0.214   2.974
 1719SOL    HW1 5168   3.338   0.149   3.029
 1719SOL    HW2 5169   3.237   0.277   3.035
 1720SOL     OW 5170   2.863   0.034   3.016
 1720SOL    HW1 5171   2.800  -0.038   2.985
 1720SOL    HW2 5172   2.956  -0.002   3.016
 1721SOL     OW 5173   2.632   1.330   2.163
 1721SOL    HW1 5174   2.586   1.243   2.180
 1721SOL    HW2 5175   2.723   1.327   2.204
 1722SOL     OW 5176   2.480   1.567   3.146
 1722SOL    HW1 5177   2.475   1.649   3.203
 1722SOL    HW2 5178   2.569   1.564   3.101
 1723SOL     OW 5179   3.214   0.052   2.030
 1723SOL    HW1 5180   3.249   0.011   1.946
 1723SOL    HW2 5181   3.124   0.014   2.050
 1724SOL     OW 5182   3.162   0.453   2.553
 1724SOL    HW1 5183   3.103   0.533   2.557
 1724SOL    HW2 5184   3.177   0.418   2.646
 1725SOL     OW 5185   3.455   0.221   2.744
 1725SOL    HW1 5186   3.371   0.220   2.798
 1725SOL    HW2 5187   3.457   0.304   2.688
 1726SOL     OW 5188   1.901   1.077   2.162
 1726SOL    HW1 5189   2.000   1.066   2.153
 1726SOL    HW2 5190   1.861   0.991   2.194
 1727SOL     OW 5191   2.737   1.646   2.199
 1727SOL    HW1 5192   2.660   1.611   2.145
 1727SOL    HW2 5193   2.705   1.717   2.261
 1728SOL     OW 5194   2.092   0.628   3.837
 1728SOL    HW1 5195   1.999   0.626   3.874
 1728SOL    HW2 5196   2.093   0.589   3.745
 1729SOL     OW 5197   2.087   0.275   4.720
 1729SOL    HW1 5198   2.122   0.258   4.812
 1729SOL    HW2 5199   1.999   0.230   4.708
 1730SOL     OW 5200   1.881   0.368   4.371
 1730SOL    HW1 5201   1.799   0.411   4.410
 1730SOL    HW2 5202   1.853   0.295   4.308
 1731SOL     OW 5203   3.417   1.511   4.427
 1731SOL    HW1 5204   3.360   1.495   4.508
 1731SOL    HW2 5205   3.358   1.521   4.347
 1732SOL     OW 5206   2.997   0.703   4.441
 1732SOL    HW1 5207   3.054   0.781   4.416
 1732SOL    HW2 5208   2.937   0.729   4.517
 1733SOL     OW 5209   3.617   0.607   3.955
 1733SOL    HW1 5210   3.605   0.594   3.856
 1733SOL    HW2 5211   3.587   0.526   4.004
 1734SOL     OW 5212   2.630   1.144   4.747
 1734SOL    HW1 5213   2.552   1.161   4.807
 1734SOL    HW2 5214   2.664   1.231   4.711
 1735SOL     OW 5215   2.547   1.012   4.389
 1735SOL    HW1 5216   2.616   0.996   4.459
 1735SOL    HW2 5217   2.474   1.069   4.427
 1736SOL     OW 5218   3.465   0.447   4.461
 1736SOL    HW1 5219   3.391   0.493   4.411
 1736SOL    HW2 5220   3.516   0.515   4.514
 1737SOL     OW 5221   2.093   1.713   4.207
 1737SOL    HW1 5222   2.127   1.790   4.261
 1737SOL    HW2 5223   2.137   1.713   4.117
 1738SOL     OW 5224   2.092   1.434   4.262
 1738SOL    HW1 5225   2.066   1.530   4.262
 1738SOL    HW2 5226   2.021   1.380   4.307
 1739SOL     OW 5227   2.102   1.091   4.610
 1739SOL    HW1 5228   2.116   1.007   4.662
 1739SOL    HW2 5229   2.047   1.155   4.665
 1740SOL     OW 5230   2.468   0.964   3.847
 1740SOL    HW1 5231   2.475   1.048   3.793
 1740SOL    HW2 5232   2.514   0.977   3.935
 1741SOL     OW 5233   1.984   0.643   4.287
 1741SOL    HW1 5234   1.939   0.555   4.304
 1741SOL    HW2 5235   1.983   0.697   4.371
 1742SOL     OW 5236   3.704   1.767   4.083
 1742SOL    HW1 5237   3.758   1.738   4.163
 1742SOL    HW2 5238   3.734   1.857   4.054
 1743SOL     OW 5239   1.889   1.596   3.841
 1743SOL    HW1 5240   1.870   1.500   3.862
 1743SOL    HW2 5241   1.856   1.654   3.916
 1744SOL     OW 5242   3.551   0.922   4.336
 1744SOL    HW1 5243   3.646   0.893   4.344
 1744SOL    HW2 5244   3.543   0.987   4.261
 1745SOL     OW 5245   3.503   1.108   4.156
 1745SOL    HW1 5246   3.589   1.110   4.104
 1745SOL    HW2 5247   3.517   1.155   4.244
 1746SOL     OW 5248   2.475   1.365   4.450
 1746SOL    HW1 5249   2.426   1.278   4.459
 1746SOL    HW2 5250   2.452   1.408   4.363
 1747SOL     OW 5251   2.671   0.004   4.226
 1747SOL    HW1 5252   2.711   0.095   4.217
 1747SOL    HW2 5253   2.571   0.012   4.232
 1748SOL     OW 5254   3.387   0.999   3.914
 1748SOL    HW1 5255   3.324   0.923   3.927
 1748SOL    HW2 5256   3.435   1.017   4.000
 1749SOL     OW 5257   3.529   1.714   4.296
 1749SOL    HW1 5258   3.488   1.691   4.208
 1749SOL    HW2 5259   3.511   1.640   4.361
 1750SOL     OW 5260   2.460   0.729   3.994
 1750SOL    HW1 5261   2.484   0.798   3.926
 1750SOL    HW2 5262   2.382   0.762   4.048
 1751SOL     OW 5263   3.143   0.345   4.668
 1751SOL    HW1 5264   3.057   0.295   4.655
 1751SOL    HW2 5265   3.205   0.291   4.724
 1752SOL     OW 5266   3.438   1.662   4.031
 1752SOL    HW1 5267   3.527   1.708   4.034
 1752SOL    HW2 5268   3.417   1.638   3.936
 1753SOL     OW 5269   2.903   0.701   4.153
 1753SOL    HW1 5270   2.929   0.697   4.249
 1753SOL    HW2 5271   2.818   0.650   4.139
 1754SOL     OW 5272   1.938   0.811   4.513
 1754SOL    HW1 5273   2.037   0.799   4.522
 1754SOL    HW2 5274   1.914   0.906   4.534
 1755SOL     OW 5275   2.727   0.348   3.919
 1755SOL    HW1 5276   2.786   0.411   3.870
 1755SOL    HW2 5277   2.746   0.254   3.890
 1756SOL     OW 5278   3.224   1.144   4.269
 1756SOL    HW1 5279   3.307   1.115   4.221
 1756SOL    HW2 5280   3.175   1.211   4.213
 1757SOL     OW 5281   2.870   1.456   4.201
 1757SOL    HW1 5282   2.824   1.528   4.149
 1757SOL    HW2 5283   2.866   1.476   4.299
 1758SOL     OW 5284   2.213   1.801   4.577
 1758SOL    HW1 5285   2.263   1.715   4.583
 1758SOL    HW2 5286   2.278   1.878   4.574
 1759SOL     OW 5287   3.657   1.066   4.597
 1759SOL    HW1 5288   3.595   1.051   4.521
 1759SOL    HW2 5289   3.605   1.077   4.682
 1760SOL     OW 5290   2.183   0.943   3.966
 1760SOL    HW1 5291   2.265   0.982   3.924
 1760SOL    HW2 5292   2.156   0.861   3.917
 1761SOL     OW 5293   3.320   0.735   4.452
 1761SOL    HW1 5294   3.315   0.670   4.527
 1761SOL    HW2 5295   3.400   0.794   4.465
 1762SOL     OW 5296   2.973   1.776   3.961
 1762SOL    HW1 5297   2.913   1.714   4.011
 1762SOL    HW2 5298   3.004   1.732   3.876
 1763SOL     OW 5299   3.494   1.377   3.805
 1763SOL    HW1 5300   3.462   1.471   3.795
 1763SOL    HW2 5301   3.418   1.314   3.793
 1764SOL     OW 5302   2.326   1.743   4.047
 1764SOL    HW1 5303   2.359   1.782   4.133
 1764SOL    HW2 5304   2.402   1.736   3.982
 1765SOL     OW 5305   3.262   0.107   4.150
 1765SOL    HW1 5306   3.238   0.070   4.060
 1765SOL    HW2 5307   3.361   0.123   4.154
 1766SOL     OW 5308   2.244   0.700   4.204
 1766SOL    HW1 5309   2.289   0.610   4.201
 1766SOL    HW2 5310   2.150   0.689   4.237
 1767SOL     OW 5311   2.476   0.122   3.841
 1767SOL    HW1 5312   2.574   0.100   3.848
 1767SOL    HW2 5313   2.445   0.105   3.748
 1768SOL     OW 5314   2.401   0.064   4.236
 1768SOL    HW1 5315   2.320   0.065   4.294
 1768SOL    HW2 5316   2.404   0.147   4.181
 1769SOL     OW 5317   3.296   1.188   3.765
 1769SOL    HW1 5318   3.328   1.112   3.822
 1769SOL    HW2 5319   3.204   1.215   3.795
 1770SOL     OW 5320   2.159   0.035   3.895
 1770SOL    HW1 5321   2.208   0.119   3.874
 1770SOL    HW2 5322   2.221  -0.030   3.940
 1771SOL     OW 5323   2.797   0.236   4.204
 1771SOL    HW1 5324   2.749   0.277   4.126
 1771SOL    HW2 5325   2.896   0.234   4.185
 1772SOL     OW 5326   2.321   1.152   4.465
 1772SOL    HW1 5327   2.250   1.125   4.530
 1772SOL    HW2 5328   2.295   1.124   4.372
 1773SOL     OW 5329   3.133   1.797   4.315
 1773SOL    HW1 5330   3.177   1.861   4.251
 1773SOL    HW2 5331   3.083   1.849   4.385
 1774SOL     OW 5332   2.894   0.549   3.740
 1774SOL    HW1 5333   2.853   0.631   3.701
 1774SOL    HW2 5334   2.958   0.575   3.813
 1775SOL     OW 5335   2.728   0.454   4.366
 1775SOL    HW1 5336   2.696   0.526   4.304
 1775SOL    HW2 5337   2.752   0.373   4.313
 1776SOL     OW 5338   2.879   0.039   4.477
 1776SOL    HW1 5339   2.807   0.044   4.408
 1776SOL    HW2 5340   2.855  -0.030   4.546
 1777SOL     OW 5341   3.719   0.833   4.101
 1777SOL    HW1 5342   3.761   0.769   4.165
 1777SOL    HW2 5343   3.681   0.782   4.023
 1778SOL     OW 5344   2.350   1.385   3.898
 1778SOL    HW1 5345   2.263   1.370   3.945
 1778SOL    HW2 5346   2.333   1.411   3.803
 1779SOL     OW 5347   3.526   1.280   4.381
 1779SOL    HW1 5348   3.625   1.288   4.395
 1779SOL    HW2 5349   3.481   1.364   4.412
 1780SOL     OW 5350   3.252   0.575   3.802
 1780SOL    HW1 5351   3.198   0.554   3.883
 1780SOL    HW2 5352   3.343   0.534   3.811
 1781SOL     OW 5353   2.389   0.256   4.052
 1781SOL    HW1 5354   2.416   0.197   3.977
 1781SOL    HW2 5355   2.389   0.351   4.021
 1782SOL     OW 5356   2.567   1.050   4.092
 1782SOL    HW1 5357   2.553   1.057   4.191
 1782SOL    HW2 5358   2.651   0.999   4.074
 1783SOL     OW 5359   2.229   1.100   4.225
 1783SOL    HW1 5360   2.222   1.183   4.169
 1783SOL    HW2 5361   2.233   1.020   4.165
 1784SOL     OW 5362   2.428   0.537   4.589
 1784SOL    HW1 5363   2.440   0.603   4.515
 1784SOL    HW2 5364   2.474   0.571   4.672
 1785SOL     OW 5365   3.114   1.348   4.112
 1785SOL    HW1 5366   3.164   1.425   4.152
 1785SOL    HW2 5367   3.019   1.350   4.144
 1786SOL     OW 5368   3.444   0.639   4.196
 1786SOL    HW1 5369   3.413   0.700   4.269
 1786SOL    HW2 5370   3.494   0.691   4.127
 1787SOL     OW 5371   3.071   0.525   3.999
 1787SOL    HW1 5372   3.084   0.441   4.053
 1787SOL    HW2 5373   3.042   0.599   4.059
 1788SOL     OW 5374   2.169   0.063   4.342
 1788SOL    HW1 5375   2.158   0.157   4.375
 1788SOL    HW2 5376   2.164   0.000   4.419
 1789SOL     OW 5377   3.484   0.367   4.098
 1789SOL    HW1 5378   3.486   0.291   4.162
 1789SOL    HW2 5379   3.436   0.444   4.138
 1790SOL     OW 5380   3.402   0.274   3.849
 1790SOL    HW1 5381   3.341   0.199   3.872
 1790SOL    HW2 5382   3.424   0.326   3.932
 1791SOL     OW 5383   3.165   0.838   3.766
 1791SOL    HW1 5384   3.199   0.745   3.781
 1791SOL    HW2 5385   3.183   0.865   3.671
 1792SOL     OW 5386   2.930   1.333   4.573
 1792SOL    HW1 5387   2.937   1.249   4.518
 1792SOL    HW2 5388   2.992   1.402   4.537
 1793SOL     OW 5389   1.870   1.326   3.924
 1793SOL    HW1 5390   1.777   1.347   3.893
 1793SOL    HW2 5391   1.880   1.227   3.937
 1794SOL     OW 5392   1.950   1.801   4.651
 1794SOL    HW1 5393   1.908   1.715   4.624
 1794SOL    HW2 5394   2.044   1.804   4.617
 1795SOL     OW 5395   2.677   0.572   4.049
 1795SOL    HW1 5396   2.684   0.483   4.003
 1795SOL    HW2 5397   2.583   0.606   4.041
 1796SOL     OW 5398   2.335   0.500   3.915
 1796SOL    HW1 5399   2.396   0.580   3.919
 1796SOL    HW2 5400   2.240   0.531   3.922
 1797SOL     OW 5401   3.164   0.855   4.033
 1797SOL    HW1 5402   3.078   0.824   4.075
 1797SOL    HW2 5403   3.160   0.841   3.934
 1798SOL     OW 5404   3.588   0.135   4.247
 1798SOL    HW1 5405   3.661   0.118   4.180
 1798SOL    HW2 5406   3.557   0.048   4.285
 1799SOL     OW 5407   3.250   1.573   4.201
 1799SOL    HW1 5408   3.317   1.585   4.127
 1799SOL    HW2 5409   3.210   1.662   4.224
 1800SOL     OW 5410   3.142   0.927   4.396
 1800SOL    HW1 5411   3.202   0.846   4.398
 1800SOL    HW2 5412   3.182   0.996   4.336
 1801SOL     OW 5413   2.534   1.616   3.878
 1801SOL    HW1 5414   2.543   1.626   3.779
 1801SOL    HW2 5415   2.494   1.527   3.899
 1802SOL     OW 5416   3.703   0.175   4.687
 1802SOL    HW1 5417   3.742   0.090   4.651
 1802SOL    HW2 5418   3.605   0.177   4.668
 1803SOL     OW 5419   2.125   0.326   4.444
 1803SOL    HW1 5420   2.046   0.377   4.410
 1803SOL    HW2 5421   2.116   0.311   4.542
 1804SOL     OW 5422   3.056   1.612   3.755
 1804SOL    HW1 5423   3.062   1.519   3.792
 1804SOL    HW2 5424   2.997   1.612   3.675
 1805SOL     OW 5425   2.778   0.910   4.015
 1805SOL    HW1 5426   2.841   0.948   3.947
 1805SOL    HW2 5427   2.818   0.827   4.054
 1806SOL     OW 5428   3.366   1.607   3.768
 1806SOL    HW1 5429   3.274   1.644   3.775
 1806SOL    HW2 5430   3.404   1.627   3.678
 1807SOL     OW 5431   2.901   1.098   4.420
 1807SOL    HW1 5432   2.831   1.051   4.474
 1807SOL    HW2 5433   2.960   1.030   4.377
 1808SOL     OW 5434   2.452   1.487   4.215
 1808SOL    HW1 5435   2.494   1.429   4.145
 1808SOL    HW2 5436   2.408   1.566   4.171
 1809SOL     OW 5437   2.117   1.348   4.014
 1809SOL    HW1 5438   2.021   1.349   3.987
 1809SOL    HW2 5439   2.129   1.401   4.098
 1810SOL     OW 5440   1.937   0.345   3.757
 1810SOL    HW1 5441   1.845   0.317   3.728
 1810SOL    HW2 5442   1.968   0.422   3.701
 1811SOL     OW 5443   1.934   0.166   4.042
 1811SOL    HW1 5444   1.917   0.249   3.988
 1811SOL    HW2 5445   2.024   0.129   4.020
 1812SOL     OW 5446   3.045   1.335   3.843
 1812SOL    HW1 5447   2.946   1.324   3.845
 1812SOL    HW2 5448   3.079   1.350   3.936
 1813SOL     OW 5449   3.087   0.325   4.173
 1813SOL    HW1 5450   3.152   0.251   4.162
 1813SOL    HW2 5451   3.107   0.375   4.257
 1814SOL     OW 5452   2.456   0.745   4.376
 1814SOL    HW1 5453   2.506   0.830   4.357
 1814SOL    HW2 5454   2.368   0.747   4.328
 1815SOL     OW 5455   2.721   1.374   3.740
 1815SOL    HW1 5456   2.675   1.389   3.828
 1815SOL    HW2 5457   2.765   1.459   3.710
 1816SOL     OW 5458   2.523   1.790   4.677
 1816SOL    HW1 5459   2.477   1.878   4.664
 1816SOL    HW2 5460   2.622   1.802   4.670
 1817SOL     OW 5461   2.721   0.956   4.585
 1817SOL    HW1 5462   2.775   0.887   4.633
 1817SOL    HW2 5463   2.689   1.025   4.651
 1818SOL     OW 5464   2.945   0.984   3.811
 1818SOL    HW1 5465   2.922   1.037   3.729
 1818SOL    HW2 5466   3.026   0.928   3.792
 1819SOL     OW 5467   3.723   1.569   4.575
 1819SOL    HW1 5468   3.652   1.557   4.505
 1819SOL    HW2 5469   3.724   1.490   4.635
 1820SOL     OW 5470   1.941   1.240   4.377
 1820SOL    HW1 5471   1.940   1.193   4.465
 1820SOL    HW2 5472   2.023   1.212   4.326
 1821SOL     OW 5473   2.290   0.424   4.244
 1821SOL    HW1 5474   2.320   0.352   4.182
 1821SOL    HW2 5475   2.251   0.384   4.327
 1822SOL     OW 5476   2.674   1.586   4.411
 1822SOL    HW1 5477   2.706   1.596   4.317
 1822SOL    HW2 5478   2.595   1.524   4.413
 1823SOL     OW 5479   2.632   1.330   4.025
 1823SOL    HW1 5480   2.586   1.243   4.042
 1823SOL    HW2 5481   2.723   1.327   4.066
 1824SOL     OW 5482   3.214   0.052   3.892
 1824SOL    HW1 5483   3.249   0.011   3.808
 1824SOL    HW2 5484   3.124   0.014   3.912
 1825SOL     OW 5485   3.162   0.453   4.415
 1825SOL    HW1 5486   3.103   0.533   4.419
 1825SOL    HW2 5487   3.177   0.418   4.508
 1826SOL     OW 5488   1.901   1.077   4.024
 1826SOL    HW1 5489   2.000   1.066   4.015
 1826SOL    HW2 5490   1.861   0.991   4.056
 1827SOL     OW 5491   2.737   1.646   4.061
 1827SOL    HW1 5492   2.660   1.611   4.007
 1827SOL    HW2 5493   2.705   1.717   4.123
 1828SOL     OW 5494   2.092   2.490   0.113
 1828SOL    HW1 5495   1.999   2.488   0.150
 1828SOL    HW2 5496   2.093   2.451   0.021
 1829SOL     OW 5497   2.087   2.137   0.996
 1829SOL    HW1 5498   2.122   2.120   1.088
 1829SOL    HW2 5499   1.999   2.092   0.984
 1830SOL     OW 5500   1.881   2.230   0.647
 1830SOL    HW1 5501   1.799   2.273   0.686
 1830SOL    HW2 5502   1.853   2.157   0.584
 1831SOL     OW 5503   2.431   3.137   1.165
 1831SOL    HW1 5504   2.338   3.130   1.128
 1831SOL    HW2 5505   2.442   3.226   1.209
 1832SOL     OW 5506   3.417   3.373   0.703
 1832SOL    HW1 5507   3.360   3.357   0.784
 1832SOL    HW2 5508   3.358   3.383   0.623
 1833SOL     OW 5509   2.997   2.565   0.717
 1833SOL    HW1 5510   3.054   2.643   0.692
 1833SOL    HW2 5511   2.937   2.591   0.793
 1834SOL     OW 5512   3.617   2.469   0.231
 1834SOL    HW1 5513   3.605   2.456   0.132
 1834SOL    HW2 5514   3.587   2.388   0.280
 1835SOL     OW 5515   2.630   3.006   1.023
 1835SOL    HW1 5516   2.552   3.023   1.083
 1835SOL    HW2 5517   2.664   3.093   0.987
 1836SOL     OW 5518   2.712   2.660   1.823
 1836SOL    HW1 5519   2.708   2.736   1.888
 1836SOL    HW2 5520   2.734   2.696   1.732
 1837SOL     OW 5521   2.547   2.874   0.665
 1837SOL    HW1 5522   2.616   2.858   0.735
 1837SOL    HW2 5523   2.474   2.931   0.703
 1838SOL     OW 5524   2.548   3.023   1.803
 1838SOL    HW1 5525   2.608   3.102   1.817
 1838SOL    HW2 5526   2.462   3.054   1.762
 1839SOL     OW 5527   2.197   3.297   1.061
 1839SOL    HW1 5528   2.119   3.266   1.008
 1839SOL    HW2 5529   2.255   3.355   1.004
 1840SOL     OW 5530   3.322   3.367   1.339
 1840SOL    HW1 5531   3.346   3.461   1.365
 1840SOL    HW2 5532   3.306   3.313   1.421
 1841SOL     OW 5533   2.300   2.254   1.499
 1841SOL    HW1 5534   2.382   2.198   1.508
 1841SOL    HW2 5535   2.219   2.196   1.503
 1842SOL     OW 5536   3.465   2.309   0.737
 1842SOL    HW1 5537   3.391   2.355   0.687
 1842SOL    HW2 5538   3.516   2.377   0.790
 1843SOL     OW 5539   2.093   3.575   0.483
 1843SOL    HW1 5540   2.127   3.652   0.537
 1843SOL    HW2 5541   2.137   3.575   0.393
 1844SOL     OW 5542   2.989   3.203   1.690
 1844SOL    HW1 5543   3.036   3.203   1.778
 1844SOL    HW2 5544   2.941   3.116   1.679
 1845SOL     OW 5545   2.092   3.296   0.538
 1845SOL    HW1 5546   2.066   3.392   0.538
 1845SOL    HW2 5547   2.021   3.242   0.583
 1846SOL     OW 5548   2.102   2.953   0.886
 1846SOL    HW1 5549   2.116   2.869   0.938
 1846SOL    HW2 5550   2.047   3.017   0.941
 1847SOL     OW 5551   2.482   3.648   1.439
 1847SOL    HW1 5552   2.390   3.631   1.474
 1847SOL    HW2 5553   2.510   3.740   1.465
 1848SOL     OW 5554   2.468   2.826   0.123
 1848SOL    HW1 5555   2.475   2.910   0.069
 1848SOL    HW2 5556   2.514   2.839   0.211
 1849SOL     OW 5557   3.456   1.976   1.480
 1849SOL    HW1 5558   3.438   2.043   1.408
 1849SOL    HW2 5559   3.453   2.022   1.569
 1850SOL     OW 5560   1.984   2.505   0.563
 1850SOL    HW1 5561   1.939   2.417   0.580
 1850SOL    HW2 5562   1.983   2.559   0.647
 1851SOL     OW 5563   3.704   3.629   0.359
 1851SOL    HW1 5564   3.758   3.600   0.439
 1851SOL    HW2 5565   3.734   3.719   0.330
 1852SOL     OW 5566   1.889   3.458   0.117
 1852SOL    HW1 5567   1.870   3.362   0.138
 1852SOL    HW2 5568   1.856   3.516   0.192
 1853SOL     OW 5569   3.551   2.784   0.612
 1853SOL    HW1 5570   3.646   2.755   0.620
 1853SOL    HW2 5571   3.543   2.849   0.537
 1854SOL     OW 5572   3.503   2.970   0.432
 1854SOL    HW1 5573   3.589   2.972   0.380
 1854SOL    HW2 5574   3.517   3.017   0.520
 1855SOL     OW 5575   1.975   2.599   1.597
 1855SOL    HW1 5576   2.063   2.586   1.642
 1855SOL    HW2 5577   1.962   2.696   1.575
 1856SOL     OW 5578   2.475   3.227   0.726
 1856SOL    HW1 5579   2.426   3.140   0.735
 1856SOL    HW2 5580   2.452   3.270   0.639
 1857SOL     OW 5581   3.155   3.090   1.423
 1857SOL    HW1 5582   3.192   3.017   1.365
 1857SOL    HW2 5583   3.207   3.095   1.508
 1858SOL     OW 5584   2.671   1.866   0.502
 1858SOL    HW1 5585   2.711   1.957   0.493
 1858SOL    HW2 5586   2.571   1.874   0.508
 1859SOL     OW 5587   2.059   2.838   1.264
 1859SOL    HW1 5588   2.148   2.793   1.250
 1859SOL    HW2 5589   1.986   2.773   1.245
 1860SOL     OW 5590   3.387   2.861   0.190
 1860SOL    HW1 5591   3.324   2.785   0.203
 1860SOL    HW2 5592   3.435   2.879   0.276
 1861SOL     OW 5593   3.049   3.654   1.616
 1861SOL    HW1 5594   3.073   3.714   1.540
 1861SOL    HW2 5595   3.056   3.559   1.586
 1862SOL     OW 5596   2.179   2.113   1.801
 1862SOL    HW1 5597   2.250   2.184   1.807
 1862SOL    HW2 5598   2.091   2.152   1.829
 1863SOL     OW 5599   3.328   3.279   0.953
 1863SOL    HW1 5600   3.269   3.285   1.033
 1863SOL    HW2 5601   3.313   3.191   0.907
 1864SOL     OW 5602   3.529   3.576   0.572
 1864SOL    HW1 5603   3.488   3.553   0.484
 1864SOL    HW2 5604   3.511   3.502   0.637
 1865SOL     OW 5605   2.460   2.591   0.270
 1865SOL    HW1 5606   2.484   2.660   0.202
 1865SOL    HW2 5607   2.382   2.624   0.324
 1866SOL     OW 5608   3.143   2.207   0.944
 1866SOL    HW1 5609   3.057   2.157   0.931
 1866SOL    HW2 5610   3.205   2.153   1.000
 1867SOL     OW 5611   3.438   3.524   0.307
 1867SOL    HW1 5612   3.527   3.570   0.310
 1867SOL    HW2 5613   3.417   3.500   0.212
 1868SOL     OW 5614   2.669   2.467   1.465
 1868SOL    HW1 5615   2.622   2.464   1.554
 1868SOL    HW2 5616   2.618   2.412   1.399
 1869SOL     OW 5617   3.256   2.331   1.674
 1869SOL    HW1 5618   3.236   2.374   1.762
 1869SOL    HW2 5619   3.334   2.269   1.683
 1870SOL     OW 5620   2.835   2.752   1.572
 1870SOL    HW1 5621   2.881   2.668   1.543
 1870SOL    HW2 5622   2.779   2.786   1.497
 1871SOL     OW 5623   2.853   2.272   1.242
 1871SOL    HW1 5624   2.776   2.306   1.296
 1871SOL    HW2 5625   2.819   2.221   1.163
 1872SOL     OW 5626   2.903   2.563   0.429
 1872SOL    HW1 5627   2.929   2.559   0.525
 1872SOL    HW2 5628   2.818   2.512   0.415
 1873SOL     OW 5629   1.938   2.673   0.789
 1873SOL    HW1 5630   2.037   2.661   0.798
 1873SOL    HW2 5631   1.914   2.768   0.810
 1874SOL     OW 5632   1.992   3.683   1.571
 1874SOL    HW1 5633   1.982   3.668   1.670
 1874SOL    HW2 5634   1.906   3.719   1.535
 1875SOL     OW 5635   2.727   2.210   0.195
 1875SOL    HW1 5636   2.786   2.273   0.146
 1875SOL    HW2 5637   2.746   2.116   0.166
 1876SOL     OW 5638   3.581   2.447   1.831
 1876SOL    HW1 5639   3.555   2.536   1.795
 1876SOL    HW2 5640   3.579   2.379   1.758
 1877SOL     OW 5641   3.224   3.006   0.545
 1877SOL    HW1 5642   3.307   2.977   0.497
 1877SOL    HW2 5643   3.175   3.073   0.489
 1878SOL     OW 5644   2.412   2.058   0.885
 1878SOL    HW1 5645   2.407   2.053   0.985
 1878SOL    HW2 5646   2.414   2.154   0.856
 1879SOL     OW 5647   2.870   3.318   0.477
 1879SOL    HW1 5648   2.824   3.390   0.425
 1879SOL    HW2 5649   2.866   3.338   0.575
 1880SOL     OW 5650   2.213   3.663   0.853
 1880SOL    HW1 5651   2.263   3.577   0.859
 1880SOL    HW2 5652   2.278   3.740   0.850
 1881SOL     OW 5653   3.657   2.928   0.873
 1881SOL    HW1 5654   3.595   2.913   0.797
 1881SOL    HW2 5655   3.605   2.939   0.958
 1882SOL     OW 5656   3.089   3.412   1.506
 1882SOL    HW1 5657   3.095   3.335   1.570
 1882SOL    HW2 5658   3.037   3.386   1.426
 1883SOL     OW 5659   2.183   2.805   0.242
 1883SOL    HW1 5660   2.265   2.844   0.200
 1883SOL    HW2 5661   2.156   2.723   0.193
 1884SOL     OW 5662   3.320   2.597   0.728
 1884SOL    HW1 5663   3.315   2.532   0.803
 1884SOL    HW2 5664   3.400   2.656   0.741
 1885SOL     OW 5665   2.323   3.128   1.727
 1885SOL    HW1 5666   2.273   3.129   1.641
 1885SOL    HW2 5667   2.260   3.110   1.803
 1886SOL     OW 5668   2.973   3.638   0.237
 1886SOL    HW1 5669   2.913   3.576   0.287
 1886SOL    HW2 5670   3.004   3.594   0.152
 1887SOL     OW 5671   2.064   2.147   1.498
 1887SOL    HW1 5672   1.984   2.207   1.485
 1887SOL    HW2 5673   2.054   2.098   1.584
 1888SOL     OW 5674   3.494   3.239   0.081
 1888SOL    HW1 5675   3.462   3.333   0.071
 1888SOL    HW2 5676   3.418   3.176   0.069
 1889SOL     OW 5677   2.326   3.605   0.323
 1889SOL    HW1 5678   2.359   3.644   0.409
 1889SOL    HW2 5679   2.402   3.598   0.258
 1890SOL     OW 5680   3.262   1.969   0.426
 1890SOL    HW1 5681   3.238   1.932   0.336
 1890SOL    HW2 5682   3.361   1.985   0.430
 1891SOL     OW 5683   2.111   3.647   1.241
 1891SOL    HW1 5684   2.168   3.582   1.291
 1891SOL    HW2 5685   2.095   3.614   1.148
 1892SOL     OW 5686   2.802   3.560   0.904
 1892SOL    HW1 5687   2.882   3.503   0.925
 1892SOL    HW2 5688   2.753   3.520   0.827
 1893SOL     OW 5689   2.244   2.562   0.480
 1893SOL    HW1 5690   2.289   2.472   0.477
 1893SOL    HW2 5691   2.150   2.551   0.513
 1894SOL     OW 5692   3.409   2.084   1.729
 1894SOL    HW1 5693   3.404   2.121   1.821
 1894SOL    HW2 5694   3.337   2.015   1.717
 1895SOL     OW 5695   2.643   2.126   1.749
 1895SOL    HW1 5696   2.710   2.065   1.792
 1895SOL    HW2 5697   2.570   2.145   1.814
 1896SOL     OW 5698   2.750   3.376   1.195
 1896SOL    HW1 5699   2.727   3.351   1.101
 1896SOL    HW2 5700   2.811   3.307   1.234
 1897SOL     OW 5701   3.213   2.452   1.433
 1897SOL    HW1 5702   3.241   2.409   1.518
 1897SOL    HW2 5703   3.238   2.548   1.434
 1898SOL     OW 5704   2.665   3.264   0.924
 1898SOL    HW1 5705   2.755   3.278   0.882
 1898SOL    HW2 5706   2.594   3.266   0.853
 1899SOL     OW 5707   2.784   2.365   0.899
 1899SOL    HW1 5708   2.759   2.356   0.803
 1899SOL    HW2 5709   2.832   2.283   0.930
 1900SOL     OW 5710   2.401   1.926   0.512
 1900SOL    HW1 5711   2.320   1.927   0.570
 1900SOL    HW2 5712   2.404   2.009   0.457
 1901SOL     OW 5713   3.296   3.050   0.041
 1901SOL    HW1 5714   3.328   2.974   0.098
 1901SOL    HW2 5715   3.204   3.077   0.071
 1902SOL     OW 5716   2.159   1.897   0.171
 1902SOL    HW1 5717   2.208   1.981   0.150
 1902SOL    HW2 5718   2.221   1.832   0.216
 1903SOL     OW 5719   2.797   2.098   0.480
 1903SOL    HW1 5720   2.749   2.139   0.402
 1903SOL    HW2 5721   2.896   2.096   0.461
 1904SOL     OW 5722   2.938   2.545   1.464
 1904SOL    HW1 5723   2.858   2.484   1.467
 1904SOL    HW2 5724   3.019   2.492   1.440
 1905SOL     OW 5725   3.089   3.432   0.793
 1905SOL    HW1 5726   3.110   3.506   0.728
 1905SOL    HW2 5727   3.157   3.432   0.866
 1906SOL     OW 5728   2.321   3.014   0.741
 1906SOL    HW1 5729   2.250   2.987   0.806
 1906SOL    HW2 5730   2.295   2.986   0.648
 1907SOL     OW 5731   3.133   3.659   0.591
 1907SOL    HW1 5732   3.177   3.723   0.527
 1907SOL    HW2 5733   3.083   3.711   0.661
 1908SOL     OW 5734   2.894   2.411   0.016
 1908SOL    HW1 5735   2.853   2.493  -0.023
 1908SOL    HW2 5736   2.958   2.437   0.089
 1909SOL     OW 5737   1.940   2.418   1.386
 1909SOL    HW1 5738   2.032   2.417   1.345
 1909SOL    HW2 5739   1.934   2.492   1.453
 1910SOL     OW 5740   2.423   2.084   1.147
 1910SOL    HW1 5741   2.461   2.000   1.184
 1910SOL    HW2 5742   2.335   2.103   1.191
 1911SOL     OW 5743   2.728   2.316   0.642
 1911SOL    HW1 5744   2.696   2.388   0.580
 1911SOL    HW2 5745   2.752   2.235   0.589
 1912SOL     OW 5746   2.879   1.901   0.753
 1912SOL    HW1 5747   2.807   1.906   0.684
 1912SOL    HW2 5748   2.855   1.832   0.822
 1913SOL     OW 5749   3.291   3.035   0.867
 1913SOL    HW1 5750   3.236   2.951   0.860
 1913SOL    HW2 5751   3.317   3.064   0.775
 1914SOL     OW 5752   3.328   2.452   0.992
 1914SOL    HW1 5753   3.298   2.357   0.999
 1914SOL    HW2 5754   3.401   2.468   1.058
 1915SOL     OW 5755   3.719   2.695   0.377
 1915SOL    HW1 5756   3.761   2.631   0.441
 1915SOL    HW2 5757   3.681   2.644   0.299
 1916SOL     OW 5758   2.350   3.247   0.174
 1916SOL    HW1 5759   2.263   3.232   0.221
 1916SOL    HW2 5760   2.333   3.273   0.079
 1917SOL     OW 5761   3.526   3.142   0.657
 1917SOL    HW1 5762   3.625   3.150   0.671
 1917SOL    HW2 5763   3.481   3.226   0.688
 1918SOL     OW 5764   3.252   2.437   0.078
 1918SOL    HW1 5765   3.198   2.416   0.159
 1918SOL    HW2 5766   3.343   2.396   0.087
 1919SOL     OW 5767   2.389   2.118   0.328
 1919SOL    HW1 5768   2.416   2.059   0.253
 1919SOL    HW2 5769   2.389   2.213   0.297
 1920SOL     OW 5770   3.616   3.085   1.588
 1920SOL    HW1 5771   3.707   3.046   1.575
 1920SOL    HW2 5772   3.624   3.181   1.612
 1921SOL     OW 5773   2.926   3.209   1.340
 1921SOL    HW1 5774   2.846   3.186   1.395
 1921SOL    HW2 5775   3.009   3.183   1.389
 1922SOL     OW 5776   3.454   3.491   1.625
 1922SOL    HW1 5777   3.481   3.525   1.535
 1922SOL    HW2 5778   3.533   3.453   1.671
 1923SOL     OW 5779   2.973   3.057   1.100
 1923SOL    HW1 5780   2.933   3.101   1.181
 1923SOL    HW2 5781   2.932   3.094   1.017
 1924SOL     OW 5782   3.500   2.961   1.079
 1924SOL    HW1 5783   3.505   3.042   1.138
 1924SOL    HW2 5784   3.414   2.963   1.028
 1925SOL     OW 5785   2.777   1.951   1.402
 1925SOL    HW1 5786   2.802   1.931   1.307
 1925SOL    HW2 5787   2.849   2.007   1.444
 1926SOL     OW 5788   2.842   2.978   1.719
 1926SOL    HW1 5789   2.743   2.984   1.729
 1926SOL    HW2 5790   2.865   2.898   1.663
 1927SOL     OW 5791   2.567   2.912   0.368
 1927SOL    HW1 5792   2.553   2.919   0.467
 1927SOL    HW2 5793   2.651   2.861   0.350
 1928SOL     OW 5794   2.272   2.675   1.251
 1928SOL    HW1 5795   2.358   2.687   1.301
 1928SOL    HW2 5796   2.230   2.588   1.278
 1929SOL     OW 5797   3.136   2.248   1.262
 1929SOL    HW1 5798   3.157   2.322   1.326
 1929SOL    HW2 5799   3.047   2.265   1.219
 1930SOL     OW 5800   1.926   3.426   1.331
 1930SOL    HW1 5801   1.880   3.508   1.297
 1930SOL    HW2 5802   2.024   3.445   1.340
 1931SOL     OW 5803   2.229   2.962   0.501
 1931SOL    HW1 5804   2.222   3.045   0.445
 1931SOL    HW2 5805   2.233   2.882   0.441
 1932SOL     OW 5806   2.428   2.399   0.865
 1932SOL    HW1 5807   2.440   2.465   0.791
 1932SOL    HW2 5808   2.474   2.433   0.948
 1933SOL     OW 5809   3.114   3.210   0.388
 1933SOL    HW1 5810   3.164   3.287   0.428
 1933SOL    HW2 5811   3.019   3.212   0.420
 1934SOL     OW 5812   3.134   3.307   1.142
 1934SOL    HW1 5813   3.181   3.320   1.229
 1934SOL    HW2 5814   3.068   3.233   1.151
 1935SOL     OW 5815   3.444   2.501   0.472
 1935SOL    HW1 5816   3.413   2.562   0.545
 1935SOL    HW2 5817   3.494   2.553   0.403
 1936SOL     OW 5818   2.216   3.372   1.329
 1936SOL    HW1 5819   2.195   3.328   1.242
 1936SOL    HW2 5820   2.313   3.398   1.332
 1937SOL     OW 5821   2.264   2.613   1.598
 1937SOL    HW1 5822   2.332   2.668   1.551
 1937SOL    HW2 5823   2.304   2.525   1.625
 1938SOL     OW 5824   3.449   2.641   1.670
 1938SOL    HW1 5825   3.357   2.679   1.665
 1938SOL    HW2 5826   3.509   2.688   1.605
 1939SOL     OW 5827   2.875   1.967   1.770
 1939SOL    HW1 5828   2.881   2.052   1.718
 1939SOL    HW2 5829   2.907   1.891   1.713
 1940SOL     OW 5830   2.366   1.912   1.740
 1940SOL    HW1 5831   2.324   1.855   1.670
 1940SOL    HW2 5832   2.300   1.981   1.772
 1941SOL     OW 5833   2.435   2.732   1.029
 1941SOL    HW1 5834   2.479   2.821   1.020
 1941SOL    HW2 5835   2.372   2.732   1.106
 1942SOL     OW 5836   3.222   2.724   1.045
 1942SOL    HW1 5837   3.147   2.724   0.979
 1942SOL    HW2 5838   3.259   2.632   1.054
 1943SOL     OW 5839   3.071   2.387   0.275
 1943SOL    HW1 5840   3.084   2.303   0.329
 1943SOL    HW2 5841   3.042   2.461   0.335
 1944SOL     OW 5842   2.169   2.075   1.231
 1944SOL    HW1 5843   2.146   2.112   1.321
 1944SOL    HW2 5844   2.139   1.980   1.225
 1945SOL     OW 5845   1.899   3.172   1.282
 1945SOL    HW1 5846   1.952   3.123   1.350
 1945SOL    HW2 5847   1.921   3.270   1.287
 1946SOL     OW 5848   2.594   2.496   1.064
 1946SOL    HW1 5849   2.653   2.470   0.988
 1946SOL    HW2 5850   2.566   2.592   1.053
 1947SOL     OW 5851   3.590   2.797   1.854
 1947SOL    HW1 5852   3.544   2.790   1.765
 1947SOL    HW2 5853   3.528   2.841   1.920
 1948SOL     OW 5854   2.169   1.925   0.618
 1948SOL    HW1 5855   2.158   2.019   0.651
 1948SOL    HW2 5856   2.164   1.862   0.695
 1949SOL     OW 5857   3.484   2.229   0.374
 1949SOL    HW1 5858   3.486   2.153   0.438
 1949SOL    HW2 5859   3.436   2.306   0.414
 1950SOL     OW 5860   2.885   2.628   0.966
 1950SOL    HW1 5861   2.900   2.649   1.062
 1950SOL    HW2 5862   2.855   2.533   0.957
 1951SOL     OW 5863   2.842   3.435   1.700
 1951SOL    HW1 5864   2.822   3.479   1.612
 1951SOL    HW2 5865   2.881   3.344   1.684
 1952SOL     OW 5866   3.721   3.380   1.605
 1952SOL    HW1 5867   3.735   3.407   1.510
 1952SOL    HW2 5868   3.804   3.402   1.658
 1953SOL     OW 5869   2.212   2.760   1.804
 1953SOL    HW1 5870   2.288   2.804   1.852
 1953SOL    HW2 5871   2.247   2.713   1.722
 1954SOL     OW 5872   3.402   2.136   0.125
 1954SOL    HW1 5873   3.341   2.061   0.148
 1954SOL    HW2 5874   3.424   2.188   0.208
 1955SOL     OW 5875   3.165   2.700   0.042
 1955SOL    HW1 5876   3.199   2.607   0.057
 1955SOL    HW2 5877   3.183   2.727  -0.053
 1956SOL     OW 5878   2.930   3.195   0.849
 1956SOL    HW1 5879   2.937   3.111   0.794
 1956SOL    HW2 5880   2.992   3.264   0.813
 1957SOL     OW 5881   2.181   2.672   0.949
 1957SOL    HW1 5882   2.274   2.708   0.954
 1957SOL    HW2 5883   2.175   2.587   1.001
 1958SOL     OW 5884   2.201   2.371   1.006
 1958SOL    HW1 5885   2.149   2.288   0.989
 1958SOL    HW2 5886   2.278   2.376   0.942
 1959SOL     OW 5887   3.000   2.242   1.678
 1959SOL    HW1 5888   2.955   2.305   1.742
 1959SOL    HW2 5889   3.093   2.273   1.661
 1960SOL     OW 5890   3.022   2.069   1.477
 1960SOL    HW1 5891   3.022   2.133   1.554
 1960SOL    HW2 5892   3.050   2.117   1.394
 1961SOL     OW 5893   1.870   3.188   0.200
 1961SOL    HW1 5894   1.777   3.209   0.169
 1961SOL    HW2 5895   1.880   3.089   0.213
 1962SOL     OW 5896   1.950   3.663   0.927
 1962SOL    HW1 5897   1.908   3.577   0.900
 1962SOL    HW2 5898   2.044   3.666   0.893
 1963SOL     OW 5899   2.366   3.430   0.910
 1963SOL    HW1 5900   2.432   3.504   0.919
 1963SOL    HW2 5901   2.410   3.351   0.868
 1964SOL     OW 5902   2.864   2.658   1.238
 1964SOL    HW1 5903   2.905   2.626   1.324
 1964SOL    HW2 5904   2.768   2.631   1.235
 1965SOL     OW 5905   1.902   2.406   1.114
 1965SOL    HW1 5906   1.987   2.373   1.073
 1965SOL    HW2 5907   1.915   2.421   1.212
 1966SOL     OW 5908   2.051   2.382   1.722
 1966SOL    HW1 5909   2.110   2.342   1.652
 1966SOL    HW2 5910   1.993   2.453   1.681
 1967SOL     OW 5911   3.231   2.812   1.660
 1967SOL    HW1 5912   3.270   2.901   1.680
 1967SOL    HW2 5913   3.241   2.792   1.563
 1968SOL     OW 5914   2.677   2.434   0.325
 1968SOL    HW1 5915   2.684   2.345   0.279
 1968SOL    HW2 5916   2.583   2.468   0.317
 1969SOL     OW 5917   3.519   2.466   1.206
 1969SOL    HW1 5918   3.481   2.397   1.268
 1969SOL    HW2 5919   3.601   2.430   1.162
 1970SOL     OW 5920   2.114   3.426   1.744
 1970SOL    HW1 5921   2.084   3.483   1.820
 1970SOL    HW2 5922   2.107   3.329   1.770
 1971SOL     OW 5923   2.533   2.326   1.269
 1971SOL    HW1 5924   2.499   2.237   1.239
 1971SOL    HW2 5925   2.559   2.380   1.189
 1972SOL     OW 5926   2.792   3.540   1.465
 1972SOL    HW1 5927   2.768   3.522   1.370
 1972SOL    HW2 5928   2.822   3.634   1.475
 1973SOL     OW 5929   2.335   2.362   0.191
 1973SOL    HW1 5930   2.396   2.442   0.195
 1973SOL    HW2 5931   2.240   2.393   0.198
 1974SOL     OW 5932   2.021   2.999   1.466
 1974SOL    HW1 5933   2.043   2.938   1.542
 1974SOL    HW2 5934   2.031   2.950   1.380
 1975SOL     OW 5935   3.209   2.921   1.234
 1975SOL    HW1 5936   3.233   2.858   1.160
 1975SOL    HW2 5937   3.119   2.961   1.216
 1976SOL     OW 5938   3.164   2.717   0.309
 1976SOL    HW1 5939   3.078   2.686   0.351
 1976SOL    HW2 5940   3.160   2.703   0.210
 1977SOL     OW 5941   3.621   3.609   1.154
 1977SOL    HW1 5942   3.682   3.639   1.081
 1977SOL    HW2 5943   3.583   3.520   1.132
 1978SOL     OW 5944   3.114   3.593   1.128
 1978SOL    HW1 5945   3.198   3.598   1.074
 1978SOL    HW2 5946   3.091   3.497   1.146
 1979SOL     OW 5947   1.945   3.120   1.022
 1979SOL    HW1 5948   1.940   3.119   1.122
 1979SOL    HW2 5949   1.862   3.079   0.984
 1980SOL     OW 5950   2.550   3.524   1.716
 1980SOL    HW1 5951   2.494   3.605   1.725
 1980SOL    HW2 5952   2.602   3.528   1.630
 1981SOL     OW 5953   2.765   1.948   0.133
 1981SOL    HW1 5954   2.816   1.949   0.047
 1981SOL    HW2 5955   2.821   1.906   0.204
 1982SOL     OW 5956   3.588   1.997   0.523
 1982SOL    HW1 5957   3.661   1.980   0.456
 1982SOL    HW2 5958   3.557   1.910   0.561
 1983SOL     OW 5959   3.250   3.435   0.477
 1983SOL    HW1 5960   3.317   3.447   0.403
 1983SOL    HW2 5961   3.210   3.524   0.500
 1984SOL     OW 5962   1.992   3.656   1.851
 1984SOL    HW1 5963   1.951   3.582   1.904
 1984SOL    HW2 5964   2.056   3.707   1.909
 1985SOL     OW 5965   3.142   2.789   0.672
 1985SOL    HW1 5966   3.202   2.708   0.674
 1985SOL    HW2 5967   3.182   2.858   0.612
 1986SOL     OW 5968   2.692   3.135   1.422
 1986SOL    HW1 5969   2.687   3.168   1.517
 1986SOL    HW2 5970   2.606   3.154   1.376
 1987SOL     OW 5971   2.534   3.478   0.154
 1987SOL    HW1 5972   2.543   3.488   0.055
 1987SOL    HW2 5973   2.494   3.389   0.175
 1988SOL     OW 5974   3.512   3.582   1.394
 1988SOL    HW1 5975   3.565   3.592   1.310
 1988SOL    HW2 5976   3.485   3.672   1.428
 1989SOL     OW 5977   3.703   2.037   0.963
 1989SOL    HW1 5978   3.742   1.952   0.927
 1989SOL    HW2 5979   3.605   2.039   0.944
 1990SOL     OW 5980   2.125   2.188   0.720
 1990SOL    HW1 5981   2.046   2.239   0.686
 1990SOL    HW2 5982   2.116   2.173   0.818
 1991SOL     OW 5983   3.056   3.474   0.031
 1991SOL    HW1 5984   3.062   3.381   0.068
 1991SOL    HW2 5985   2.997   3.474  -0.049
 1992SOL     OW 5986   2.684   2.864   1.372
 1992SOL    HW1 5987   2.724   2.863   1.280
 1992SOL    HW2 5988   2.694   2.956   1.412
 1993SOL     OW 5989   2.778   2.772   0.291
 1993SOL    HW1 5990   2.841   2.810   0.223
 1993SOL    HW2 5991   2.818   2.689   0.330
 1994SOL     OW 5992   3.366   3.469   0.044
 1994SOL    HW1 5993   3.274   3.506   0.051
 1994SOL    HW2 5994   3.404   3.489  -0.046
 1995SOL     OW 5995   2.234   3.150   1.490
 1995SOL    HW1 5996   2.221   3.243   1.456
 1995SOL    HW2 5997   2.150   3.098   1.477
 1996SOL     OW 5998   3.476   3.154   1.289
 1996SOL    HW1 5999   3.536   3.157   1.369
 1996SOL    HW2 6000   3.401   3.218   1.302
 1997SOL     OW 6001   2.901   2.960   0.696
 1997SOL    HW1 6002   2.831   2.913   0.750
 1997SOL    HW2 6003   2.960   2.892   0.653
 1998SOL     OW 6004   2.876   2.098   0.971
 1998SOL    HW1 6005   2.868   2.062   0.878
 1998SOL    HW2 6006   2.874   2.022   1.036
 1999SOL     OW 6007   2.452   3.349   0.491
 1999SOL    HW1 6008   2.494   3.291   0.421
 1999SOL    HW2 6009   2.408   3.428   0.447
 2000SOL     OW 6010   3.571   2.247   1.381
 2000SOL    HW1 6011   3.644   2.316   1.385
 2000SOL    HW2 6012   3.599   2.172   1.322
 2001SOL     OW 6013   2.117   3.210   0.290
 2001SOL    HW1 6014   2.021   3.211   0.263
 2001SOL    HW2 6015   2.129   3.263   0.374
 2002SOL     OW 6016   1.967   2.875   1.726
 2002SOL    HW1 6017   1.890   2.842   1.780
 2002SOL    HW2 6018   2.052   2.845   1.768
 2003SOL     OW 6019   2.534   2.065   1.489
 2003SOL    HW1 6020   2.624   2.049   1.449
 2003SOL    HW2 6021   2.542   2.070   1.588
 2004SOL     OW 6022   3.302   2.718   1.398
 2004SOL    HW1 6023   3.245   2.770   1.335
 2004SOL    HW2 6024   3.398   2.730   1.374
 2005SOL     OW 6025   1.934   2.028   0.318
 2005SOL    HW1 6026   1.917   2.111   0.264
 2005SOL    HW2 6027   2.024   1.991   0.296
 2006SOL     OW 6028   3.045   3.197   0.119
 2006SOL    HW1 6029   2.946   3.186   0.121
 2006SOL    HW2 6030   3.079   3.212   0.212
 2007SOL     OW 6031   2.475   2.704   1.431
 2007SOL    HW1 6032   2.531   2.785   1.414
 2007SOL    HW2 6033   2.534   2.624   1.434
 2008SOL     OW 6034   3.355   3.629   0.959
 2008SOL    HW1 6035   3.388   3.693   0.890
 2008SOL    HW2 6036   3.421   3.623   1.034
 2009SOL     OW 6037   2.578   2.427   1.708
 2009SOL    HW1 6038   2.597   2.492   1.782
 2009SOL    HW2 6039   2.638   2.347   1.717
 2010SOL     OW 6040   3.312   3.082   1.633
 2010SOL    HW1 6041   3.303   3.072   1.732
 2010SOL    HW2 6042   3.408   3.075   1.607
 2011SOL     OW 6043   2.252   3.603   1.560
 2011SOL    HW1 6044   2.161   3.644   1.558
 2011SOL    HW2 6045   2.245   3.509   1.592
 2012SOL     OW 6046   3.536   2.745   1.254
 2012SOL    HW1 6047   3.509   2.656   1.217
 2012SOL    HW2 6048   3.537   2.813   1.181
 2013SOL     OW 6049   3.087   2.187   0.449
 2013SOL    HW1 6050   3.152   2.113   0.438
 2013SOL    HW2 6051   3.107   2.237   0.533
 2014SOL     OW 6052   2.456   2.607   0.652
 2014SOL    HW1 6053   2.506   2.692   0.633
 2014SOL    HW2 6054   2.368   2.609   0.604
 2015SOL     OW 6055   3.639   2.204   1.642
 2015SOL    HW1 6056   3.622   2.235   1.548
 2015SOL    HW2 6057   3.555   2.167   1.680
 2016SOL     OW 6058   3.592   2.796   1.517
 2016SOL    HW1 6059   3.630   2.887   1.532
 2016SOL    HW2 6060   3.584   2.779   1.418
 2017SOL     OW 6061   2.721   3.236   0.016
 2017SOL    HW1 6062   2.675   3.251   0.104
 2017SOL    HW2 6063   2.765   3.321  -0.014
 2018SOL     OW 6064   2.523   3.652   0.953
 2018SOL    HW1 6065   2.477   3.740   0.940
 2018SOL    HW2 6066   2.622   3.664   0.946
 2019SOL     OW 6067   2.721   2.818   0.861
 2019SOL    HW1 6068   2.775   2.749   0.909
 2019SOL    HW2 6069   2.689   2.887   0.927
 2020SOL     OW 6070   2.945   2.846   0.087
 2020SOL    HW1 6071   2.922   2.899   0.005
 2020SOL    HW2 6072   3.026   2.790   0.068
 2021SOL     OW 6073   3.723   3.431   0.851
 2021SOL    HW1 6074   3.652   3.419   0.781
 2021SOL    HW2 6075   3.724   3.352   0.911
 2022SOL     OW 6076   2.083   3.176   1.844
 2022SOL    HW1 6077   2.018   3.103   1.823
 2022SOL    HW2 6078   2.087   3.190   1.942
 2023SOL     OW 6079   1.941   3.102   0.653
 2023SOL    HW1 6080   1.940   3.055   0.741
 2023SOL    HW2 6081   2.023   3.074   0.602
 2024SOL     OW 6082   2.534   3.253   1.624
 2024SOL    HW1 6083   2.456   3.203   1.662
 2024SOL    HW2 6084   2.531   3.348   1.655
 2025SOL     OW 6085   3.686   2.054   1.227
 2025SOL    HW1 6086   3.682   1.964   1.271
 2025SOL    HW2 6087   3.689   2.043   1.128
 2026SOL     OW 6088   2.290   2.286   0.520
 2026SOL    HW1 6089   2.320   2.214   0.458
 2026SOL    HW2 6090   2.251   2.246   0.603
 2027SOL     OW 6091   3.567   3.349   1.104
 2027SOL    HW1 6092   3.474   3.324   1.077
 2027SOL    HW2 6093   3.593   3.299   1.186
 2028SOL     OW 6094   2.179   2.409   1.280
 2028SOL    HW1 6095   2.217   2.350   1.352
 2028SOL    HW2 6096   2.219   2.383   1.192
 2029SOL     OW 6097   2.674   3.448   0.687
 2029SOL    HW1 6098   2.706   3.458   0.593
 2029SOL    HW2 6099   2.595   3.386   0.689
 2030SOL     OW 6100   3.286   2.076   1.112
 2030SOL    HW1 6101   3.338   2.011   1.167
 2030SOL    HW2 6102   3.237   2.139   1.173
 2031SOL     OW 6103   2.863   1.896   1.154
 2031SOL    HW1 6104   2.800   1.824   1.123
 2031SOL    HW2 6105   2.956   1.860   1.154
 2032SOL     OW 6106   2.632   3.192   0.301
 2032SOL    HW1 6107   2.586   3.105   0.318
 2032SOL    HW2 6108   2.723   3.189   0.342
 2033SOL     OW 6109   2.480   3.429   1.284
 2033SOL    HW1 6110   2.475   3.511   1.341
 2033SOL    HW2 6111   2.569   3.426   1.239
 2034SOL     OW 6112   3.214   1.914   0.168
 2034SOL    HW1 6113   3.249   1.873   0.084
 2034SOL    HW2 6114   3.124   1.876   0.188
 2035SOL     OW 6115   3.162   2.315   0.691
 2035SOL    HW1 6116   3.103   2.395   0.695
 2035SOL    HW2 6117   3.177   2.280   0.784
 2036SOL     OW 6118   3.455   2.083   0.882
 2036SOL    HW1 6119   3.371   2.082   0.936
 2036SOL    HW2 6120   3.457   2.166   0.826
 2037SOL     OW 6121   1.901   2.939   0.300
 2037SOL    HW1 6122   2.000   2.928   0.291
 2037SOL    HW2 6123   1.861   2.853   0.332
 2038SOL     OW 6124   2.737   3.508   0.337
 2038SOL    HW1 6125   2.660   3.473   0.283
 2038SOL    HW2 6126   2.705   3.579   0.399
 2039SOL     OW 6127   2.092   2.490   1.975
 2039SOL    HW1 6128   1.999   2.488   2.012
 2039SOL    HW2 6129   2.093   2.451   1.883
 2040SOL     OW 6130   2.087   2.137   2.858
 2040SOL    HW1 6131   2.122   2.120   2.950
 2040SOL    HW2 6132   1.999   2.092   2.846
 2041SOL     OW 6133   1.881   2.230   2.509
 2041SOL    HW1 6134   1.799   2.273   2.548
 2041SOL    HW2 6135   1.853   2.157   2.446
 2042SOL     OW 6136   2.431   3.137   3.027
 2042SOL    HW1 6137   2.338   3.130   2.990
 2042SOL    HW2 6138   2.442   3.226   3.071
 2043SOL     OW 6139   3.417   3.373   2.565
 2043SOL    HW1 6140   3.360   3.357   2.646
 2043SOL    HW2 6141   3.358   3.383   2.485
 2044SOL     OW 6142   2.997   2.565   2.579
 2044SOL    HW1 6143   3.054   2.643   2.554
 2044SOL    HW2 6144   2.937   2.591   2.655
 2045SOL     OW 6145   3.617   2.469   2.093
 2045SOL    HW1 6146   3.605   2.456   1.994
 2045SOL    HW2 6147   3.587   2.388   2.142
 2046SOL     OW 6148   2.630   3.006   2.885
 2046SOL    HW1 6149   2.552   3.023   2.945
 2046SOL    HW2 6150   2.664   3.093   2.849
 2047SOL     OW 6151   2.712   2.660   3.685
 2047SOL    HW1 6152   2.708   2.736   3.750
 2047SOL    HW2 6153   2.734   2.696   3.594
 2048SOL     OW 6154   2.547   2.874   2.527
 2048SOL    HW1 6155   2.616   2.858   2.597
 2048SOL    HW2 6156   2.474   2.931   2.565
 2049SOL     OW 6157   2.548   3.023   3.665
 2049SOL    HW1 6158   2.608   3.102   3.679
 2049SOL    HW2 6159   2.462   3.054   3.624
 2050SOL     OW 6160   2.197   3.297   2.923
 2050SOL    HW1 6161   2.119   3.266   2.870
 2050SOL    HW2 6162   2.255   3.355   2.866
 2051SOL     OW 6163   3.322   3.367   3.201
 2051SOL    HW1 6164   3.346   3.461   3.227
 2051SOL    HW2 6165   3.306   3.313   3.283
 2052SOL     OW 6166   2.300   2.254   3.361
 2052SOL    HW1 6167   2.382   2.198   3.370
 2052SOL    HW2 6168   2.219   2.196   3.365
 2053SOL     OW 6169   3.465   2.309   2.599
 2053SOL    HW1 6170   3.391   2.355   2.549
 2053SOL    HW2 6171   3.516   2.377   2.652
 2054SOL     OW 6172   2.093   3.575   2.345
 2054SOL    HW1 6173   2.127   3.652   2.399
 2054SOL    HW2 6174   2.137   3.575   2.255
 2055SOL     OW 6175   2.989   3.203   3.552
 2055SOL    HW1 6176   3.036   3.203   3.640
 2055SOL    HW2 6177   2.941   3.116   3.541
 2056SOL     OW 6178   2.092   3.296   2.400
 2056SOL    HW1 6179   2.066   3.392   2.400
 2056SOL    HW2 6180   2.021   3.242   2.445
 2057SOL     OW 6181   2.102   2.953   2.748
 2057SOL    HW1 6182   2.116   2.869   2.800
 2057SOL    HW2 6183   2.047   3.017   2.803
 2058SOL     OW 6184   2.482   3.648   3.301
 2058SOL    HW1 6185   2.390   3.631   3.336
 2058SOL    HW2 6186   2.510   3.740   3.327
 2059SOL     OW 6187   2.468   2.826   1.985
 2059SOL    HW1 6188   2.475   2.910   1.931
 2059SOL    HW2 6189   2.514   2.839   2.073
 2060SOL     OW 6190   3.456   1.976   3.342
 2060SOL    HW1 6191   3.438   2.043   3.270
 2060SOL    HW2 6192   3.453   2.022   3.431
 2061SOL     OW 6193   1.984   2.505   2.425
 2061SOL    HW1 6194   1.939   2.417   2.442
 2061SOL    HW2 6195   1.983   2.559   2.509
 2062SOL     OW 6196   3.704   3.629   2.221
 2062SOL    HW1 6197   3.758   3.600   2.301
 2062SOL    HW2 6198   3.734   3.719   2.192
 2063SOL     OW 6199   1.889   3.458   1.979
 2063SOL    HW1 6200   1.870   3.362   2.000
 2063SOL    HW2 6201   1.856   3.516   2.054
 2064SOL     OW 6202   3.551   2.784   2.474
 2064SOL    HW1 6203   3.646   2.755   2.482
 2064SOL    HW2 6204   3.543   2.849   2.399
 2065SOL     OW 6205   3.503   2.970   2.294
 2065SOL    HW1 6206   3.589   2.972   2.242
 2065SOL    HW2 6207   3.517   3.017   2.382
 2066SOL     OW 6208   1.975   2.599   3.459
 2066SOL    HW1 6209   2.063   2.586   3.504
 2066SOL    HW2 6210   1.962   2.696   3.437
 2067SOL     OW 6211   2.475   3.227   2.588
 2067SOL    HW1 6212   2.426   3.140   2.597
 2067SOL    HW2 6213   2.452   3.270   2.501
 2068SOL     OW 6214   3.155   3.090   3.285
 2068SOL    HW1 6215   3.192   3.017   3.227
 2068SOL    HW2 6216   3.207   3.095   3.370
 2069SOL     OW 6217   2.671   1.866   2.364
 2069SOL    HW1 6218   2.711   1.957   2.355
 2069SOL    HW2 6219   2.571   1.874   2.370
 2070SOL     OW 6220   2.059   2.838   3.126
 2070SOL    HW1 6221   2.148   2.793   3.112
 2070SOL    HW2 6222   1.986   2.773   3.107
 2071SOL     OW 6223   3.387   2.861   2.052
 2071SOL    HW1 6224   3.324   2.785   2.065
 2071SOL    HW2 6225   3.435   2.879   2.138
 2072SOL     OW 6226   3.049   3.654   3.478
 2072SOL    HW1 6227   3.073   3.714   3.402
 2072SOL    HW2 6228   3.056   3.559   3.448
 2073SOL     OW 6229   2.179   2.113   3.663
 2073SOL    HW1 6230   2.250   2.184   3.669
 2073SOL    HW2 6231   2.091   2.152   3.691
 2074SOL     OW 6232   3.328   3.279   2.815
 2074SOL    HW1 6233   3.269   3.285   2.895
 2074SOL    HW2 6234   3.313   3.191   2.769
 2075SOL     OW 6235   3.529   3.576   2.434
 2075SOL    HW1 6236   3.488   3.553   2.346
 2075SOL    HW2 6237   3.511   3.502   2.499
 2076SOL     OW 6238   3.143   2.207   2.806
 2076SOL    HW1 6239   3.057   2.157   2.793
 2076SOL    HW2 6240   3.205   2.153   2.862
 2077SOL     OW 6241   3.438   3.524   2.169
 2077SOL    HW1 6242   3.527   3.570   2.172
 2077SOL    HW2 6243   3.417   3.500   2.074
 2078SOL     OW 6244   2.669   2.467   3.327
 2078SOL    HW1 6245   2.622   2.464   3.416
 2078SOL    HW2 6246   2.618   2.412   3.261
 2079SOL     OW 6247   3.256   2.331   3.536
 2079SOL    HW1 6248   3.236   2.374   3.624
 2079SOL    HW2 6249   3.334   2.269   3.545
 2080SOL     OW 6250   2.835   2.752   3.434
 2080SOL    HW1 6251   2.881   2.668   3.405
 2080SOL    HW2 6252   2.779   2.786   3.359
 2081SOL     OW 6253   2.853   2.272   3.104
 2081SOL    HW1 6254   2.776   2.306   3.158
 2081SOL    HW2 6255   2.819   2.221   3.025
 2082SOL     OW 6256   2.903   2.563   2.291
 2082SOL    HW1 6257   2.929   2.559   2.387
 2082SOL    HW2 6258   2.818   2.512   2.277
 2083SOL     OW 6259   1.938   2.673   2.651
 2083SOL    HW1 6260   2.037   2.661   2.660
 2083SOL    HW2 6261   1.914   2.768   2.672
 2084SOL     OW 6262   1.992   3.683   3.433
 2084SOL    HW1 6263   1.982   3.668   3.532
 2084SOL    HW2 6264   1.906   3.719   3.397
 2085SOL     OW 6265   2.727   2.210   2.057
 2085SOL    HW1 6266   2.786   2.273   2.008
 2085SOL    HW2 6267   2.746   2.116   2.028
 2086SOL     OW 6268   3.581   2.447   3.693
 2086SOL    HW1 6269   3.555   2.536   3.657
 2086SOL    HW2 6270   3.579   2.379   3.620
 2087SOL     OW 6271   3.224   3.006   2.407
 2087SOL    HW1 6272   3.307   2.977   2.359
 2087SOL    HW2 6273   3.175   3.073   2.351
 2088SOL     OW 6274   2.412   2.058   2.747
 2088SOL    HW1 6275   2.407   2.053   2.847
 2088SOL    HW2 6276   2.414   2.154   2.718
 2089SOL     OW 6277   2.870   3.318   2.339
 2089SOL    HW1 6278   2.824   3.390   2.287
 2089SOL    HW2 6279   2.866   3.338   2.437
 2090SOL     OW 6280   2.213   3.663   2.715
 2090SOL    HW1 6281   2.263   3.577   2.721
 2090SOL    HW2 6282   2.278   3.740   2.712
 2091SOL     OW 6283   3.657   2.928   2.735
 2091SOL    HW1 6284   3.595   2.913   2.659
 2091SOL    HW2 6285   3.605   2.939   2.820
 2092SOL     OW 6286   3.089   3.412   3.368
 2092SOL    HW1 6287   3.095   3.335   3.432
 2092SOL    HW2 6288   3.037   3.386   3.288
 2093SOL     OW 6289   2.183   2.805   2.104
 2093SOL    HW1 6290   2.265   2.844   2.062
 2093SOL    HW2 6291   2.156   2.723   2.055
 2094SOL     OW 6292   3.320   2.597   2.590
 2094SOL    HW1 6293   3.315   2.532   2.665
 2094SOL    HW2 6294   3.400   2.656   2.603
 2095SOL     OW 6295   2.323   3.128   3.589
 2095SOL    HW1 6296   2.273   3.129   3.503
 2095SOL    HW2 6297   2.260   3.110   3.665
 2096SOL     OW 6298   2.973   3.638   2.099
 2096SOL    HW1 6299   2.913   3.576   2.149
 2096SOL    HW2 6300   3.004   3.594   2.014
 2097SOL     OW 6301   2.064   2.147   3.360
 2097SOL    HW1 6302   1.984   2.207   3.347
 2097SOL    HW2 6303   2.054   2.098   3.446
 2098SOL     OW 6304   3.494   3.239   1.943
 2098SOL    HW1 6305   3.462   3.333   1.933
 2098SOL    HW2 6306   3.418   3.176   1.931
 2099SOL     OW 6307   2.326   3.605   2.185
 2099SOL    HW1 6308   2.359   3.644   2.271
 2099SOL    HW2 6309   2.402   3.598   2.120
 2100SOL     OW 6310   3.262   1.969   2.288
 2100SOL    HW1 6311   3.238   1.932   2.198
 2100SOL    HW2 6312   3.361   1.985   2.292
 2101SOL     OW 6313   2.111   3.647   3.103
 2101SOL    HW1 6314   2.168   3.582   3.153
 2101SOL    HW2 6315   2.095   3.614   3.010
 2102SOL     OW 6316   2.802   3.560   2.766
 2102SOL    HW1 6317   2.882   3.503   2.787
 2102SOL    HW2 6318   2.753   3.520   2.689
 2103SOL     OW 6319   3.409   2.084   3.591
 2103SOL    HW1 6320   3.404   2.121   3.683
 2103SOL    HW2 6321   3.337   2.015   3.579
 2104SOL     OW 6322   2.476   1.984   1.979
 2104SOL    HW1 6323   2.574   1.962   1.986
 2104SOL    HW2 6324   2.445   1.967   1.886
 2105SOL     OW 6325   2.643   2.126   3.611
 2105SOL    HW1 6326   2.710   2.065   3.654
 2105SOL    HW2 6327   2.570   2.145   3.676
 2106SOL     OW 6328   2.750   3.376   3.057
 2106SOL    HW1 6329   2.727   3.351   2.963
 2106SOL    HW2 6330   2.811   3.307   3.096
 2107SOL     OW 6331   3.213   2.452   3.295
 2107SOL    HW1 6332   3.241   2.409   3.380
 2107SOL    HW2 6333   3.238   2.548   3.296
 2108SOL     OW 6334   2.665   3.264   2.786
 2108SOL    HW1 6335   2.755   3.278   2.744
 2108SOL    HW2 6336   2.594   3.266   2.715
 2109SOL     OW 6337   2.784   2.365   2.761
 2109SOL    HW1 6338   2.759   2.356   2.665
 2109SOL    HW2 6339   2.832   2.283   2.792
 2110SOL     OW 6340   3.296   3.050   1.903
 2110SOL    HW1 6341   3.328   2.974   1.960
 2110SOL    HW2 6342   3.204   3.077   1.933
 2111SOL     OW 6343   2.159   1.897   2.033
 2111SOL    HW1 6344   2.208   1.981   2.012
 2111SOL    HW2 6345   2.221   1.832   2.078
 2112SOL     OW 6346   2.797   2.098   2.342
 2112SOL    HW1 6347   2.749   2.139   2.264
 2112SOL    HW2 6348   2.896   2.096   2.323
 2113SOL     OW 6349   2.938   2.545   3.326
 2113SOL    HW1 6350   2.858   2.484   3.329
 2113SOL    HW2 6351   3.019   2.492   3.302
 2114SOL     OW 6352   3.089   3.432   2.655
 2114SOL    HW1 6353   3.110   3.506   2.590
 2114SOL    HW2 6354   3.157   3.432   2.728
 2115SOL     OW 6355   2.321   3.014   2.603
 2115SOL    HW1 6356   2.250   2.987   2.668
 2115SOL    HW2 6357   2.295   2.986   2.510
 2116SOL     OW 6358   3.133   3.659   2.453
 2116SOL    HW1 6359   3.177   3.723   2.389
 2116SOL    HW2 6360   3.083   3.711   2.523
 2117SOL     OW 6361   2.894   2.411   1.878
 2117SOL    HW1 6362   2.853   2.493   1.839
 2117SOL    HW2 6363   2.958   2.437   1.951
 2118SOL     OW 6364   1.940   2.418   3.248
 2118SOL    HW1 6365   2.032   2.417   3.207
 2118SOL    HW2 6366   1.934   2.492   3.315
 2119SOL     OW 6367   2.423   2.084   3.009
 2119SOL    HW1 6368   2.461   2.000   3.046
 2119SOL    HW2 6369   2.335   2.103   3.053
 2120SOL     OW 6370   2.728   2.316   2.504
 2120SOL    HW1 6371   2.696   2.388   2.442
 2120SOL    HW2 6372   2.752   2.235   2.451
 2121SOL     OW 6373   2.879   1.901   2.615
 2121SOL    HW1 6374   2.807   1.906   2.546
 2121SOL    HW2 6375   2.855   1.832   2.684
 2122SOL     OW 6376   3.291   3.035   2.729
 2122SOL    HW1 6377   3.236   2.951   2.722
 2122SOL    HW2 6378   3.317   3.064   2.637
 2123SOL     OW 6379   3.328   2.452   2.854
 2123SOL    HW1 6380   3.298   2.357   2.861
 2123SOL    HW2 6381   3.401   2.468   2.920
 2124SOL     OW 6382   3.719   2.695   2.239
 2124SOL    HW1 6383   3.761   2.631   2.303
 2124SOL    HW2 6384   3.681   2.644   2.161
 2125SOL     OW 6385   2.350   3.247   2.036
 2125SOL    HW1 6386   2.263   3.232   2.083
 2125SOL    HW2 6387   2.333   3.273   1.941
 2126SOL     OW 6388   3.526   3.142   2.519
 2126SOL    HW1 6389   3.625   3.150   2.533
 2126SOL    HW2 6390   3.481   3.226   2.550
 2127SOL     OW 6391   3.252   2.437   1.940
 2127SOL    HW1 6392   3.198   2.416   2.021
 2127SOL    HW2 6393   3.343   2.396   1.949
 2128SOL     OW 6394   3.616   3.085   3.450
 2128SOL    HW1 6395   3.707   3.046   3.437
 2128SOL    HW2 6396   3.624   3.181   3.474
 2129SOL     OW 6397   2.926   3.209   3.202
 2129SOL    HW1 6398   2.846   3.186   3.257
 2129SOL    HW2 6399   3.009   3.183   3.251
 2130SOL     OW 6400   3.454   3.491   3.487
 2130SOL    HW1 6401   3.481   3.525   3.397
 2130SOL    HW2 6402   3.533   3.453   3.533
 2131SOL     OW 6403   2.973   3.057   2.962
 2131SOL    HW1 6404   2.933   3.101   3.043
 2131SOL    HW2 6405   2.932   3.094   2.879
 2132SOL     OW 6406   3.500   2.961   2.941
 2132SOL    HW1 6407   3.505   3.042   3.000
 2132SOL    HW2 6408   3.414   2.963   2.890
 2133SOL     OW 6409   2.777   1.951   3.264
 2133SOL    HW1 6410   2.802   1.931   3.169
 2133SOL    HW2 6411   2.849   2.007   3.306
 2134SOL     OW 6412   2.842   2.978   3.581
 2134SOL    HW1 6413   2.743   2.984   3.591
 2134SOL    HW2 6414   2.865   2.898   3.525
 2135SOL     OW 6415   2.567   2.912   2.230
 2135SOL    HW1 6416   2.553   2.919   2.329
 2135SOL    HW2 6417   2.651   2.861   2.212
 2136SOL     OW 6418   2.272   2.675   3.113
 2136SOL    HW1 6419   2.358   2.687   3.163
 2136SOL    HW2 6420   2.230   2.588   3.140
 2137SOL     OW 6421   3.136   2.248   3.124
 2137SOL    HW1 6422   3.157   2.322   3.188
 2137SOL    HW2 6423   3.047   2.265   3.081
 2138SOL     OW 6424   1.926   3.426   3.193
 2138SOL    HW1 6425   1.880   3.508   3.159
 2138SOL    HW2 6426   2.024   3.445   3.202
 2139SOL     OW 6427   2.229   2.962   2.363
 2139SOL    HW1 6428   2.222   3.045   2.307
 2139SOL    HW2 6429   2.233   2.882   2.303
 2140SOL     OW 6430   2.428   2.399   2.727
 2140SOL    HW1 6431   2.440   2.465   2.653
 2140SOL    HW2 6432   2.474   2.433   2.810
 2141SOL     OW 6433   3.114   3.210   2.250
 2141SOL    HW1 6434   3.164   3.287   2.290
 2141SOL    HW2 6435   3.019   3.212   2.282
 2142SOL     OW 6436   3.134   3.307   3.004
 2142SOL    HW1 6437   3.181   3.320   3.091
 2142SOL    HW2 6438   3.068   3.233   3.013
 2143SOL     OW 6439   3.444   2.501   2.334
 2143SOL    HW1 6440   3.413   2.562   2.407
 2143SOL    HW2 6441   3.494   2.553   2.265
 2144SOL     OW 6442   2.216   3.372   3.191
 2144SOL    HW1 6443   2.195   3.328   3.104
 2144SOL    HW2 6444   2.313   3.398   3.194
 2145SOL     OW 6445   2.264   2.613   3.460
 2145SOL    HW1 6446   2.332   2.668   3.413
 2145SOL    HW2 6447   2.304   2.525   3.487
 2146SOL     OW 6448   3.449   2.641   3.532
 2146SOL    HW1 6449   3.357   2.679   3.527
 2146SOL    HW2 6450   3.509   2.688   3.467
 2147SOL     OW 6451   2.875   1.967   3.632
 2147SOL    HW1 6452   2.881   2.052   3.580
 2147SOL    HW2 6453   2.907   1.891   3.575
 2148SOL     OW 6454   2.366   1.912   3.602
 2148SOL    HW1 6455   2.324   1.855   3.532
 2148SOL    HW2 6456   2.300   1.981   3.634
 2149SOL     OW 6457   2.435   2.732   2.891
 2149SOL    HW1 6458   2.479   2.821   2.882
 2149SOL    HW2 6459   2.372   2.732   2.968
 2150SOL     OW 6460   3.222   2.724   2.907
 2150SOL    HW1 6461   3.147   2.724   2.841
 2150SOL    HW2 6462   3.259   2.632   2.916
 2151SOL     OW 6463   3.071   2.387   2.137
 2151SOL    HW1 6464   3.084   2.303   2.191
 2151SOL    HW2 6465   3.042   2.461   2.197
 2152SOL     OW 6466   2.169   2.075   3.093
 2152SOL    HW1 6467   2.146   2.112   3.183
 2152SOL    HW2 6468   2.139   1.980   3.087
 2153SOL     OW 6469   1.899   3.172   3.144
 2153SOL    HW1 6470   1.952   3.123   3.212
 2153SOL    HW2 6471   1.921   3.270   3.149
 2154SOL     OW 6472   2.594   2.496   2.926
 2154SOL    HW1 6473   2.653   2.470   2.850
 2154SOL    HW2 6474   2.566   2.592   2.915
 2155SOL     OW 6475   3.590   2.797   3.716
 2155SOL    HW1 6476   3.544   2.790   3.627
 2155SOL    HW2 6477   3.528   2.841   3.782
 2156SOL     OW 6478   2.169   1.925   2.480
 2156SOL    HW1 6479   2.158   2.019   2.513
 2156SOL    HW2 6480   2.164   1.862   2.557
 2157SOL     OW 6481   3.484   2.229   2.236
 2157SOL    HW1 6482   3.486   2.153   2.300
 2157SOL    HW2 6483   3.436   2.306   2.276
 2158SOL     OW 6484   2.885   2.628   2.828
 2158SOL    HW1 6485   2.900   2.649   2.924
 2158SOL    HW2 6486   2.855   2.533   2.819
 2159SOL     OW 6487   2.842   3.435   3.562
 2159SOL    HW1 6488   2.822   3.479   3.474
 2159SOL    HW2 6489   2.881   3.344   3.546
 2160SOL     OW 6490   3.721   3.380   3.467
 2160SOL    HW1 6491   3.735   3.407   3.372
 2160SOL    HW2 6492   3.804   3.402   3.520
 2161SOL     OW 6493   2.212   2.760   3.666
 2161SOL    HW1 6494   2.288   2.804   3.714
 2161SOL    HW2 6495   2.247   2.713   3.584
 2162SOL     OW 6496   3.402   2.136   1.987
 2162SOL    HW1 6497   3.341   2.061   2.010
 2162SOL    HW2 6498   3.424   2.188   2.070
 2163SOL     OW 6499   3.165   2.700   1.904
 2163SOL    HW1 6500   3.199   2.607   1.919
 2163SOL    HW2 6501   3.183   2.727   1.809
 2164SOL     OW 6502   2.930   3.195   2.711
 2164SOL    HW1 6503   2.937   3.111   2.656
 2164SOL    HW2 6504   2.992   3.264   2.675
 2165SOL     OW 6505   2.181   2.672   2.811
 2165SOL    HW1 6506   2.274   2.708   2.816
 2165SOL    HW2 6507   2.175   2.587   2.863
 2166SOL     OW 6508   2.201   2.371   2.868
 2166SOL    HW1 6509   2.149   2.288   2.851
 2166SOL    HW2 6510   2.278   2.376   2.804
 2167SOL     OW 6511   3.000   2.242   3.540
 2167SOL    HW1 6512   2.955   2.305   3.604
 2167SOL    HW2 6513   3.093   2.273   3.523
 2168SOL     OW 6514   3.022   2.069   3.339
 2168SOL    HW1 6515   3.022   2.133   3.416
 2168SOL    HW2 6516   3.050   2.117   3.256
 2169SOL     OW 6517   1.870   3.188   2.062
 2169SOL    HW1 6518   1.777   3.209   2.031
 2169SOL    HW2 6519   1.880   3.089   2.075
 2170SOL     OW 6520   1.950   3.663   2.789
 2170SOL    HW1 6521   1.908   3.577   2.762
 2170SOL    HW2 6522   2.044   3.666   2.755
 2171SOL     OW 6523   2.366   3.430   2.772
 2171SOL    HW1 6524   2.432   3.504   2.781
 2171SOL    HW2 6525   2.410   3.351   2.730
 2172SOL     OW 6526   2.864   2.658   3.100
 2172SOL    HW1 6527   2.905   2.626   3.186
 2172SOL    HW2 6528   2.768   2.631   3.097
 2173SOL     OW 6529   1.902   2.406   2.976
 2173SOL    HW1 6530   1.987   2.373   2.935
 2173SOL    HW2 6531   1.915   2.421   3.074
 2174SOL     OW 6532   2.051   2.382   3.584
 2174SOL    HW1 6533   2.110   2.342   3.514
 2174SOL    HW2 6534   1.993   2.453   3.543
 2175SOL     OW 6535   3.231   2.812   3.522
 2175SOL    HW1 6536   3.270   2.901   3.542
 2175SOL    HW2 6537   3.241   2.792   3.425
 2176SOL     OW 6538   2.677   2.434   2.187
 2176SOL    HW1 6539   2.684   2.345   2.141
 2176SOL    HW2 6540   2.583   2.468   2.179
 2177SOL     OW 6541   3.519   2.466   3.068
 2177SOL    HW1 6542   3.481   2.397   3.130
 2177SOL    HW2 6543   3.601   2.430   3.024
 2178SOL     OW 6544   2.114   3.426   3.606
 2178SOL    HW1 6545   2.084   3.483   3.682
 2178SOL    HW2 6546   2.107   3.329   3.632
 2179SOL     OW 6547   2.533   2.326   3.131
 2179SOL    HW1 6548   2.499   2.237   3.101
 2179SOL    HW2 6549   2.559   2.380   3.051
 2180SOL     OW 6550   2.792   3.540   3.327
 2180SOL    HW1 6551   2.768   3.522   3.232
 2180SOL    HW2 6552   2.822   3.634   3.337
 2181SOL     OW 6553   2.335   2.362   2.053
 2181SOL    HW1 6554   2.396   2.442   2.057
 2181SOL    HW2 6555   2.240   2.393   2.060
 2182SOL     OW 6556   2.021   2.999   3.328
 2182SOL    HW1 6557   2.043   2.938   3.404
 2182SOL    HW2 6558   2.031   2.950   3.242
 2183SOL     OW 6559   3.209   2.921   3.096
 2183SOL    HW1 6560   3.233   2.858   3.022
 2183SOL    HW2 6561   3.119   2.961   3.078
 2184SOL     OW 6562   3.164   2.717   2.171
 2184SOL    HW1 6563   3.078   2.686   2.213
 2184SOL    HW2 6564   3.160   2.703   2.072
 2185SOL     OW 6565   3.621   3.609   3.016
 2185SOL    HW1 6566   3.682   3.639   2.943
 2185SOL    HW2 6567   3.583   3.520   2.994
 2186SOL     OW 6568   3.114   3.593   2.990
 2186SOL    HW1 6569   3.198   3.598   2.936
 2186SOL    HW2 6570   3.091   3.497   3.008
 2187SOL     OW 6571   1.945   3.120   2.884
 2187SOL    HW1 6572   1.940   3.119   2.984
 2187SOL    HW2 6573   1.862   3.079   2.846
 2188SOL     OW 6574   2.550   3.524   3.578
 2188SOL    HW1 6575   2.494   3.605   3.587
 2188SOL    HW2 6576   2.602   3.528   3.492
 2189SOL     OW 6577   3.588   1.997   2.385
 2189SOL    HW1 6578   3.661   1.980   2.318
 2189SOL    HW2 6579   3.557   1.910   2.423
 2190SOL     OW 6580   3.250   3.435   2.339
 2190SOL    HW1 6581   3.317   3.447   2.265
 2190SOL    HW2 6582   3.210   3.524   2.362
 2191SOL     OW 6583   1.992   3.656   3.713
 2191SOL    HW1 6584   1.951   3.582   3.766
 2191SOL    HW2 6585   2.056   3.707   3.771
 2192SOL     OW 6586   3.142   2.789   2.534
 2192SOL    HW1 6587   3.202   2.708   2.536
 2192SOL    HW2 6588   3.182   2.858   2.474
 2193SOL     OW 6589   2.692   3.135   3.284
 2193SOL    HW1 6590   2.687   3.168   3.379
 2193SOL    HW2 6591   2.606   3.154   3.238
 2194SOL     OW 6592   2.534   3.478   2.016
 2194SOL    HW1 6593   2.543   3.488   1.917
 2194SOL    HW2 6594   2.494   3.389   2.037
 2195SOL     OW 6595   3.512   3.582   3.256
 2195SOL    HW1 6596   3.565   3.592   3.172
 2195SOL    HW2 6597   3.485   3.672   3.290
 2196SOL     OW 6598   3.703   2.037   2.825
 2196SOL    HW1 6599   3.742   1.952   2.789
 2196SOL    HW2 6600   3.605   2.039   2.806
 2197SOL     OW 6601   2.125   2.188   2.582
 2197SOL    HW1 6602   2.046   2.239   2.548
 2197SOL    HW2 6603   2.116   2.173   2.680
 2198SOL     OW 6604   3.056   3.474   1.893
 2198SOL    HW1 6605   3.062   3.381   1.930
 2198SOL    HW2 6606   2.997   3.474   1.813
 2199SOL     OW 6607   2.684   2.864   3.234
 2199SOL    HW1 6608   2.724   2.863   3.142
 2199SOL    HW2 6609   2.694   2.956   3.274
 2200SOL     OW 6610   2.778   2.772   2.153
 2200SOL    HW1 6611   2.841   2.810   2.085
 2200SOL    HW2 6612   2.818   2.689   2.192
 2201SOL     OW 6613   3.366   3.469   1.906
 2201SOL    HW1 6614   3.274   3.506   1.913
 2201SOL    HW2 6615   3.404   3.489   1.816
 2202SOL     OW 6616   2.234   3.150   3.352
 2202SOL    HW1 6617   2.221   3.243   3.318
 2202SOL    HW2 6618   2.150   3.098   3.339
 2203SOL     OW 6619   3.476   3.154   3.151
 2203SOL    HW1 6620   3.536   3.157   3.231
 2203SOL    HW2 6621   3.401   3.218   3.164
 2204SOL     OW 6622   2.901   2.960   2.558
 2204SOL    HW1 6623   2.831   2.913   2.612
 2204SOL    HW2 6624   2.960   2.892   2.515
 2205SOL     OW 6625   2.876   2.098   2.833
 2205SOL    HW1 6626   2.868   2.062   2.740
 2205SOL    HW2 6627   2.874   2.022   2.898
 2206SOL     OW 6628   2.452   3.349   2.353
 2206SOL    HW1 6629   2.494   3.291   2.283
 2206SOL    HW2 6630   2.408   3.428   2.309
 2207SOL     OW 6631   3.571   2.247   3.243
 2207SOL    HW1 6632   3.644   2.316   3.247
 2207SOL    HW2 6633   3.599   2.172   3.184
 2208SOL     OW 6634   2.117   3.210   2.152
 2208SOL    HW1 6635   2.021   3.211   2.125
 2208SOL    HW2 6636   2.129   3.263   2.236
 2209SOL     OW 6637   1.967   2.875   3.588
 2209SOL    HW1 6638   1.890   2.842   3.642
 2209SOL    HW2 6639   2.052   2.845   3.630
 2210SOL     OW 6640   2.534   2.065   3.351
 2210SOL    HW1 6641   2.624   2.049   3.311
 2210SOL    HW2 6642   2.542   2.070   3.450
 2211SOL     OW 6643   1.937   2.207   1.895
 2211SOL    HW1 6644   1.845   2.179   1.866
 2211SOL    HW2 6645   1.968   2.284   1.839
 2212SOL     OW 6646   3.302   2.718   3.260
 2212SOL    HW1 6647   3.245   2.770   3.197
 2212SOL    HW2 6648   3.398   2.730   3.236
 2213SOL     OW 6649   1.934   2.028   2.180
 2213SOL    HW1 6650   1.917   2.111   2.126
 2213SOL    HW2 6651   2.024   1.991   2.158
 2214SOL     OW 6652   3.045   3.197   1.981
 2214SOL    HW1 6653   2.946   3.186   1.983
 2214SOL    HW2 6654   3.079   3.212   2.074
 2215SOL     OW 6655   2.475   2.704   3.293
 2215SOL    HW1 6656   2.531   2.785   3.276
 2215SOL    HW2 6657   2.534   2.624   3.296
 2216SOL     OW 6658   3.355   3.629   2.821
 2216SOL    HW1 6659   3.388   3.693   2.752
 2216SOL    HW2 6660   3.421   3.623   2.896
 2217SOL     OW 6661   2.578   2.427   3.570
 2217SOL    HW1 6662   2.597   2.492   3.644
 2217SOL    HW2 6663   2.638   2.347   3.579
 2218SOL     OW 6664   3.312   3.082   3.495
 2218SOL    HW1 6665   3.303   3.072   3.594
 2218SOL    HW2 6666   3.408   3.075   3.469
 2219SOL     OW 6667   2.252   3.603   3.422
 2219SOL    HW1 6668   2.161   3.644   3.420
 2219SOL    HW2 6669   2.245   3.509   3.454
 2220SOL     OW 6670   3.536   2.745   3.116
 2220SOL    HW1 6671   3.509   2.656   3.079
 2220SOL    HW2 6672   3.537   2.813   3.043
 2221SOL     OW 6673   3.087   2.187   2.311
 2221SOL    HW1 6674   3.152   2.113   2.300
 2221SOL    HW2 6675   3.107   2.237   2.395
 2222SOL     OW 6676   2.456   2.607   2.514
 2222SOL    HW1 6677   2.506   2.692   2.495
 2222SOL    HW2 6678   2.368   2.609   2.466
 2223SOL     OW 6679   3.639   2.204   3.504
 2223SOL    HW1 6680   3.622   2.235   3.410
 2223SOL    HW2 6681   3.555   2.167   3.542
 2224SOL     OW 6682   3.592   2.796   3.379
 2224SOL    HW1 6683   3.630   2.887   3.394
 2224SOL    HW2 6684   3.584   2.779   3.280
 2225SOL     OW 6685   2.721   3.236   1.878
 2225SOL    HW1 6686   2.675   3.251   1.966
 2225SOL    HW2 6687   2.765   3.321   1.848
 2226SOL     OW 6688   2.523   3.652   2.815
 2226SOL    HW1 6689   2.477   3.740   2.802
 2226SOL    HW2 6690   2.622   3.664   2.808
 2227SOL     OW 6691   2.721   2.818   2.723
 2227SOL    HW1 6692   2.775   2.749   2.771
 2227SOL    HW2 6693   2.689   2.887   2.789
 2228SOL     OW 6694   2.945   2.846   1.949
 2228SOL    HW1 6695   2.922   2.899   1.867
 2228SOL    HW2 6696   3.026   2.790   1.930
 2229SOL     OW 6697   3.723   3.431   2.713
 2229SOL    HW1 6698   3.652   3.419   2.643
 2229SOL    HW2 6699   3.724   3.352   2.773
 2230SOL     OW 6700   2.083   3.176   3.706
 2230SOL    HW1 6701   2.018   3.103   3.685
 2230SOL    HW2 6702   2.087   3.190   3.804
 2231SOL     OW 6703   1.941   3.102   2.515
 2231SOL    HW1 6704   1.940   3.055   2.603
 2231SOL    HW2 6705   2.023   3.074   2.464
 2232SOL     OW 6706   2.534   3.253   3.486
 2232SOL    HW1 6707   2.456   3.203   3.524
 2232SOL    HW2 6708   2.531   3.348   3.517
 2233SOL     OW 6709   3.686   2.054   3.089
 2233SOL    HW1 6710   3.682   1.964   3.133
 2233SOL    HW2 6711   3.689   2.043   2.990
 2234SOL     OW 6712   3.567   3.349   2.966
 2234SOL    HW1 6713   3.474   3.324   2.939
 2234SOL    HW2 6714   3.593   3.299   3.048
 2235SOL     OW 6715   2.179   2.409   3.142
 2235SOL    HW1 6716   2.217   2.350   3.214
 2235SOL    HW2 6717   2.219   2.383   3.054
 2236SOL     OW 6718   2.674   3.448   2.549
 2236SOL    HW1 6719   2.706   3.458   2.455
 2236SOL    HW2 6720   2.595   3.386   2.551
 2237SOL     OW 6721   3.286   2.076   2.974
 2237SOL    HW1 6722   3.338   2.011   3.029
 2237SOL    HW2 6723   3.237   2.139   3.035
 2238SOL     OW 6724   2.863   1.896   3.016
 2238SOL    HW1 6725   2.800   1.824   2.985
 2238SOL    HW2 6726   2.956   1.860   3.016
 2239SOL     OW 6727   2.632   3.192   2.163
 2239SOL    HW1 6728   2.586   3.105   2.180
 2239SOL    HW2 6729   2.723   3.189   2.204
 2240SOL     OW 6730   2.480   3.429   3.146
 2240SOL    HW1 6731   2.475   3.511   3.203
 2240SOL    HW2 6732   2.569   3.426   3.101
 2241SOL     OW 6733   3.214   1.914   2.030
 2241SOL    HW1 6734   3.249   1.873   1.946
 2241SOL    HW2 6735   3.124   1.876   2.050
 2242SOL     OW 6736   3.162   2.315   2.553
 2242SOL    HW1 6737   3.103   2.395   2.557
 2242SOL    HW2 6738   3.177   2.280   2.646
 2243SOL     OW 6739   3.455   2.083   2.744
 2243SOL    HW1 6740   3.371   2.082   2.798
 2243SOL    HW2 6741   3.457   2.166   2.688
 2244SOL     OW 6742   1.901   2.939   2.162
 2244SOL    HW1 6743   2.000   2.928   2.153
 2244SOL    HW2 6744   1.861   2.853   2.194
 2245SOL     OW 6745   2.737   3.508   2.199
 2245SOL    HW1 6746   2.660   3.473   2.145
 2245SOL    HW2 6747   2.705   3.579   2.261
 2246SOL     OW 6748   2.092   2.490   3.837
 2246SOL    HW1 6749   1.999   2.488   3.874
 2246SOL    HW2 6750   2.093   2.451   3.745
 2247SOL     OW 6751   2.087   2.137   4.720
 2247SOL    HW1 6752   2.122   2.120   4.812
 2247SOL    HW2 6753   1.999   2.092   4.708
 2248SOL     OW 6754   1.881   2.230   4.371
 2248SOL    HW1 6755   1.799   2.273   4.410
 2248SOL    HW2 6756   1.853   2.157   4.308
 2249SOL     OW 6757   3.417   3.373   4.427
 2249SOL    HW1 6758   3.360   3.357   4.508
 2249SOL    HW2 6759   3.358   3.383   4.347
 2250SOL     OW 6760   2.997   2.565   4.441
 2250SOL    HW1 6761   3.054   2.643   4.416
 2250SOL    HW2 6762   2.937   2.591   4.517
 2251SOL     OW 6763   3.617   2.469   3.955
 2251SOL    HW1 6764   3.605   2.456   3.856
 2251SOL    HW2 6765   3.587   2.388   4.004
 2252SOL     OW 6766   2.630   3.006   4.747
 2252SOL    HW1 6767   2.552   3.023   4.807
 2252SOL    HW2 6768   2.664   3.093   4.711
 2253SOL     OW 6769   2.547   2.874   4.389
 2253SOL    HW1 6770   2.616   2.858   4.459
 2253SOL    HW2 6771   2.474   2.931   4.427
 2254SOL     OW 6772   3.465   2.309   4.461
 2254SOL    HW1 6773   3.391   2.355   4.411
 2254SOL    HW2 6774   3.516   2.377   4.514
 2255SOL     OW 6775   2.093   3.575   4.207
 2255SOL    HW1 6776   2.127   3.652   4.261
 2255SOL    HW2 6777   2.137   3.575   4.117
 2256SOL     OW 6778   2.092   3.296   4.262
 2256SOL    HW1 6779   2.066   3.392   4.262
 2256SOL    HW2 6780   2.021   3.242   4.307
 2257SOL     OW 6781   2.102   2.953   4.610
 2257SOL    HW1 6782   2.116   2.869   4.662
 2257SOL    HW2 6783   2.047   3.017   4.665
 2258SOL     OW 6784   2.468   2.826   3.847
 2258SOL    HW1 6785   2.475   2.910   3.793
 2258SOL    HW2 6786   2.514   2.839   3.935
 2259SOL     OW 6787   1.984   2.505   4.287
 2259SOL    HW1 6788   1.939   2.417   4.304
 2259SOL    HW2 6789   1.983   2.559   4.371
 2260SOL     OW 6790   3.704   3.629   4.083
 2260SOL    HW1 6791   3.758   3.600   4.163
 2260SOL    HW2 6792   3.734   3.719   4.054
 2261SOL     OW 6793   1.889   3.458   3.841
 2261SOL    HW1 6794   1.870   3.362   3.862
 2261SOL    HW2 6795   1.856   3.516   3.916
 2262SOL     OW 6796   3.551   2.784   4.336
 2262SOL    HW1 6797   3.646   2.755   4.344
 2262SOL    HW2 6798   3.543   2.849   4.261
 2263SOL     OW 6799   3.503   2.970   4.156
 2263SOL    HW1 6800   3.589   2.972   4.104
 2263SOL    HW2 6801   3.517   3.017   4.244
 2264SOL     OW 6802   2.475   3.227   4.450
 2264SOL    HW1 6803   2.426   3.140   4.459
 2264SOL    HW2 6804   2.452   3.270   4.363
 2265SOL     OW 6805   2.671   1.866   4.226
 2265SOL    HW1 6806   2.711   1.957   4.217
 2265SOL    HW2 6807   2.571   1.874   4.232
 2266SOL     OW 6808   3.387   2.861   3.914
 2266SOL    HW1 6809   3.324   2.785   3.927
 2266SOL    HW2 6810   3.435   2.879   4.000
 2267SOL     OW 6811   3.529   3.576   4.296
 2267SOL    HW1 6812   3.488   3.553   4.208
 2267SOL    HW2 6813   3.511   3.502   4.361
 2268SOL     OW 6814   2.460   2.591   3.994
 2268SOL    HW1 6815   2.484   2.660   3.926
 2268SOL    HW2 6816   2.382   2.624   4.048
 2269SOL     OW 6817   3.143   2.207   4.668
 2269SOL    HW1 6818   3.057   2.157   4.655
 2269SOL    HW2 6819   3.205   2.153   4.724
 2270SOL     OW 6820   3.438   3.524   4.031
 2270SOL    HW1 6821   3.527   3.570   4.034
 2270SOL    HW2 6822   3.417   3.500   3.936
 2271SOL     OW 6823   2.903   2.563   4.153
 2271SOL    HW1 6824   2.929   2.559   4.249
 2271SOL    HW2 6825   2.818   2.512   4.139
 2272SOL     OW 6826   1.938   2.673   4.513
 2272SOL    HW1 6827   2.037   2.661   4.522
 2272SOL    HW2 6828   1.914   2.768   4.534
 2273SOL     OW 6829   2.727   2.210   3.919
 2273SOL    HW1 6830   2.786   2.273   3.870
 2273SOL    HW2 6831   2.746   2.116   3.890
 2274SOL     OW 6832   3.224   3.006   4.269
 2274SOL    HW1 6833   3.307   2.977   4.221
 2274SOL    HW2 6834   3.175   3.073   4.213
 2275SOL     OW 6835   2.412   2.058   4.609
 2275SOL    HW1 6836   2.407   2.053   4.709
 2275SOL    HW2 6837   2.414   2.154   4.580
 2276SOL     OW 6838   2.870   3.318   4.201
 2276SOL    HW1 6839   2.824   3.390   4.149
 2276SOL    HW2 6840   2.866   3.338   4.299
 2277SOL     OW 6841   2.213   3.663   4.577
 2277SOL    HW1 6842   2.263   3.577   4.583
 2277SOL    HW2 6843   2.278   3.740   4.574
 2278SOL     OW 6844   3.657   2.928   4.597
 2278SOL    HW1 6845   3.595   2.913   4.521
 2278SOL    HW2 6846   3.605   2.939   4.682
 2279SOL     OW 6847   2.183   2.805   3.966
 2279SOL    HW1 6848   2.265   2.844   3.924
 2279SOL    HW2 6849   2.156   2.723   3.917
 2280SOL     OW 6850   3.320   2.597   4.452
 2280SOL    HW1 6851   3.315   2.532   4.527
 2280SOL    HW2 6852   3.400   2.656   4.465
 2281SOL     OW 6853   2.973   3.638   3.961
 2281SOL    HW1 6854   2.913   3.576   4.011
 2281SOL    HW2 6855   3.004   3.594   3.876
 2282SOL     OW 6856   3.494   3.239   3.805
 2282SOL    HW1 6857   3.462   3.333   3.795
 2282SOL    HW2 6858   3.418   3.176   3.793
 2283SOL     OW 6859   2.326   3.605   4.047
 2283SOL    HW1 6860   2.359   3.644   4.133
 2283SOL    HW2 6861   2.402   3.598   3.982
 2284SOL     OW 6862   3.262   1.969   4.150
 2284SOL    HW1 6863   3.238   1.932   4.060
 2284SOL    HW2 6864   3.361   1.985   4.154
 2285SOL     OW 6865   2.244   2.562   4.204
 2285SOL    HW1 6866   2.289   2.472   4.201
 2285SOL    HW2 6867   2.150   2.551   4.237
 2286SOL     OW 6868   2.476   1.984   3.841
 2286SOL    HW1 6869   2.574   1.962   3.848
 2286SOL    HW2 6870   2.445   1.967   3.748
 2287SOL     OW 6871   2.401   1.926   4.236
 2287SOL    HW1 6872   2.320   1.927   4.294
 2287SOL    HW2 6873   2.404   2.009   4.181
 2288SOL     OW 6874   3.296   3.050   3.765
 2288SOL    HW1 6875   3.328   2.974   3.822
 2288SOL    HW2 6876   3.204   3.077   3.795
 2289SOL     OW 6877   2.159   1.897   3.895
 2289SOL    HW1 6878   2.208   1.981   3.874
 2289SOL    HW2 6879   2.221   1.832   3.940
 2290SOL     OW 6880   2.797   2.098   4.204
 2290SOL    HW1 6881   2.749   2.139   4.126
 2290SOL    HW2 6882   2.896   2.096   4.185
 2291SOL     OW 6883   2.321   3.014   4.465
 2291SOL    HW1 6884   2.250   2.987   4.530
 2291SOL    HW2 6885   2.295   2.986   4.372
 2292SOL     OW 6886   3.133   3.659   4.315
 2292SOL    HW1 6887   3.177   3.723   4.251
 2292SOL    HW2 6888   3.083   3.711   4.385
 2293SOL     OW 6889   2.894   2.411   3.740
 2293SOL    HW1 6890   2.853   2.493   3.701
 2293SOL    HW2 6891   2.958   2.437   3.813
 2294SOL     OW 6892   2.728   2.316   4.366
 2294SOL    HW1 6893   2.696   2.388   4.304
 2294SOL    HW2 6894   2.752   2.235   4.313
 2295SOL     OW 6895   2.879   1.901   4.477
 2295SOL    HW1 6896   2.807   1.906   4.408
 2295SOL    HW2 6897   2.855   1.832   4.546
 2296SOL     OW 6898   3.719   2.695   4.101
 2296SOL    HW1 6899   3.761   2.631   4.165
 2296SOL    HW2 6900   3.681   2.644   4.023
 2297SOL     OW 6901   2.350   3.247   3.898
 2297SOL    HW1 6902   2.263   3.232   3.945
 2297SOL    HW2 6903   2.333   3.273   3.803
 2298SOL     OW 6904   3.526   3.142   4.381
 2298SOL    HW1 6905   3.625   3.150   4.395
 2298SOL    HW2 6906   3.481   3.226   4.412
 2299SOL     OW 6907   3.252   2.437   3.802
 2299SOL    HW1 6908   3.198   2.416   3.883
 2299SOL    HW2 6909   3.343   2.396   3.811
 2300SOL     OW 6910   2.389   2.118   4.052
 2300SOL    HW1 6911   2.416   2.059   3.977
 2300SOL    HW2 6912   2.389   2.213   4.021
 2301SOL     OW 6913   2.567   2.912   4.092
 2301SOL    HW1 6914   2.553   2.919   4.191
 2301SOL    HW2 6915   2.651   2.861   4.074
 2302SOL     OW 6916   2.229   2.962   4.225
 2302SOL    HW1 6917   2.222   3.045   4.169
 2302SOL    HW2 6918   2.233   2.882   4.165
 2303SOL     OW 6919   2.428   2.399   4.589
 2303SOL    HW1 6920   2.440   2.465   4.515
 2303SOL    HW2 6921   2.474   2.433   4.672
 2304SOL     OW 6922   3.114   3.210   4.112
 2304SOL    HW1 6923   3.164   3.287   4.152
 2304SOL    HW2 6924   3.019   3.212   4.144
 2305SOL     OW 6925   3.444   2.501   4.196
 2305SOL    HW1 6926   3.413   2.562   4.269
 2305SOL    HW2 6927   3.494   2.553   4.127
 2306SOL     OW 6928   3.071   2.387   3.999
 2306SOL    HW1 6929   3.084   2.303   4.053
 2306SOL    HW2 6930   3.042   2.461   4.059
 2307SOL     OW 6931   2.169   1.925   4.342
 2307SOL    HW1 6932   2.158   2.019   4.375
 2307SOL    HW2 6933   2.164   1.862   4.419
 2308SOL     OW 6934   3.484   2.229   4.098
 2308SOL    HW1 6935   3.486   2.153   4.162
 2308SOL    HW2 6936   3.436   2.306   4.138
 2309SOL     OW 6937   3.402   2.136   3.849
 2309SOL    HW1 6938   3.341   2.061   3.872
 2309SOL    HW2 6939   3.424   2.188   3.932
 2310SOL     OW 6940   3.165   2.700   3.766
 2310SOL    HW1 6941   3.199   2.607   3.781
 2310SOL    HW2 6942   3.183   2.727   3.671
 2311SOL     OW 6943   2.930   3.195   4.573
 2311SOL    HW1 6944   2.937   3.111   4.518
 2311SOL    HW2 6945   2.992   3.264   4.537
 2312SOL     OW 6946   1.870   3.188   3.924
 2312SOL    HW1 6947   1.777   3.209   3.893
 2312SOL    HW2 6948   1.880   3.089   3.937
 2313SOL     OW 6949   1.950   3.663   4.651
 2313SOL    HW1 6950   1.908   3.577   4.624
 2313SOL    HW2 6951   2.044   3.666   4.617
 2314SOL     OW 6952   2.677   2.434   4.049
 2314SOL    HW1 6953   2.684   2.345   4.003
 2314SOL    HW2 6954   2.583   2.468   4.041
 2315SOL     OW 6955   2.335   2.362   3.915
 2315SOL    HW1 6956   2.396   2.442   3.919
 2315SOL    HW2 6957   2.240   2.393   3.922
 2316SOL     OW 6958   3.164   2.717   4.033
 2316SOL    HW1 6959   3.078   2.686   4.075
 2316SOL    HW2 6960   3.160   2.703   3.934
 2317SOL     OW 6961   3.588   1.997   4.247
 2317SOL    HW1 6962   3.661   1.980   4.180
 2317SOL    HW2 6963   3.557   1.910   4.285
 2318SOL     OW 6964   3.250   3.435   4.201
 2318SOL    HW1 6965   3.317   3.447   4.127
 2318SOL    HW2 6966   3.210   3.524   4.224
 2319SOL     OW 6967   3.142   2.789   4.396
 2319SOL    HW1 6968   3.202   2.708   4.398
 2319SOL    HW2 6969   3.182   2.858   4.336
 2320SOL     OW 6970   2.534   3.478   3.878
 2320SOL    HW1 6971   2.543   3.488   3.779
 2320SOL    HW2 6972   2.494   3.389   3.899
 2321SOL     OW 6973   3.703   2.037   4.687
 2321SOL    HW1 6974   3.742   1.952   4.651
 2321SOL    HW2 6975   3.605   2.039   4.668
 2322SOL     OW 6976   2.125   2.188   4.444
 2322SOL    HW1 6977   2.046   2.239   4.410
 2322SOL    HW2 6978   2.116   2.173   4.542
 2323SOL     OW 6979   3.056   3.474   3.755
 2323SOL    HW1 6980   3.062   3.381   3.792
 2323SOL    HW2 6981   2.997   3.474   3.675
 2324SOL     OW 6982   2.778   2.772   4.015
 2324SOL    HW1 6983   2.841   2.810   3.947
 2324SOL    HW2 6984   2.818   2.689   4.054
 2325SOL     OW 6985   3.366   3.469   3.768
 2325SOL    HW1 6986   3.274   3.506   3.775
 2325SOL    HW2 6987   3.404   3.489   3.678
 2326SOL     OW 6988   2.901   2.960   4.420
 2326SOL    HW1 6989   2.831   2.913   4.474
 2326SOL    HW2 6990   2.960   2.892   4.377
 2327SOL     OW 6991   2.452   3.349   4.215
 2327SOL    HW1 6992   2.494   3.291   4.145
 2327SOL    HW2 6993   2.408   3.428   4.171
 2328SOL     OW 6994   2.117   3.210   4.014
 2328SOL    HW1 6995   2.021   3.211   3.987
 2328SOL    HW2 6996   2.129   3.263   4.098
 2329SOL     OW 6997   1.937   2.207   3.757
 2329SOL    HW1 6998   1.845   2.179   3.728
 2329SOL    HW2 6999   1.968   2.284   3.701
 2330SOL     OW 7000   1.934   2.028   4.042
 2330SOL    HW1 7001   1.917   2.111   3.988
 2330SOL    HW2 7002   2.024   1.991   4.020
 2331SOL     OW 7003   3.045   3.197   3.843
 2331SOL    HW1 7004   2.946   3.186   3.845
 2331SOL    HW2 7005   3.079   3.212   3.936
 2332SOL     OW 7006   3.087   2.187   4.173
 2332SOL    HW1 7007   3.152   2.113   4.162
 2332SOL    HW2 7008   3.107   2.237   4.257
 2333SOL     OW 7009   2.456   2.607   4.376
 2333SOL    HW1 7010   2.506   2.692   4.357
 2333SOL    HW2 7011   2.368   2.609   4.328
 2334SOL     OW 7012   2.721   3.236   3.740
 2334SOL    HW1 7013   2.675   3.251   3.828
 2334SOL    HW2 7014   2.765   3.321   3.710
 2335SOL     OW 7015   2.523   3.652   4.677
 2335SOL    HW1 7016   2.477   3.740   4.664
 2335SOL    HW2 7017   2.622   3.664   4.670
 2336SOL     OW 7018   2.721   2.818   4.585
 2336SOL    HW1 7019   2.775   2.749   4.633
 2336SOL    HW2 7020   2.689   2.887   4.651
 2337SOL     OW 7021   2.945   2.846   3.811
 2337SOL    HW1 7022   2.922   2.899   3.729
 2337SOL    HW2 7023   3.026   2.790   3.792
 2338SOL     OW 7024   3.723   3.431   4.575
 2338SOL    HW1 7025   3.652   3.419   4.505
 2338SOL    HW2 7026   3.724   3.352   4.635
 2339SOL     OW 7027   1.941   3.102   4.377
 2339SOL    HW1 7028   1.940   3.055   4.465
 2339SOL    HW2 7029   2.023   3.074   4.326
 2340SOL     OW 7030   2.290   2.286   4.244
 2340SOL    HW1 7031   2.320   2.214   4.182
 2340SOL    HW2 7032   2.251   2.246   4.327
 2341SOL     OW 7033   2.674   3.448   4.411
 2341SOL    HW1 7034   2.706   3.458   4.317
 2341SOL    HW2 7035   2.595   3.386   4.413
 2342SOL     OW 7036   2.632   3.192   4.025
 2342SOL    HW1 7037   2.586   3.105   4.042
 2342SOL    HW2 7038   2.723   3.189   4.066
 2343SOL     OW 7039   3.214   1.914   3.892
 2343SOL    HW1 7040   3.249   1.873   3.808
 2343SOL    HW2 7041   3.124   1.876   3.912
 2344SOL     OW 7042   3.162   2.315   4.415
 2344SOL    HW1 7043   3.103   2.395   4.419
 2344SOL    HW2 7044   3.177   2.280   4.508
 2345SOL     OW 7045   1.901   2.939   4.024
 2345SOL    HW1 7046   2.000   2.928   4.015
 2345SOL    HW2 7047   1.861   2.853   4.056
 2346SOL     OW 7048   2.737   3.508   4.061
 2346SOL    HW1 7049   2.660   3.473   4.007
 2346SOL    HW2 7050   2.705   3.579   4.123
 2347SOL     OW 7051   2.092   4.352   0.113
 2347SOL    HW1 7052   1.999   4.350   0.150
 2347SOL    HW2 7053   2.093   4.313   0.021
 2348SOL     OW 7054   2.087   3.999   0.996
 2348SOL    HW1 7055   2.122   3.982   1.088
 2348SOL    HW2 7056   1.999   3.954   0.984
 2349SOL     OW 7057   1.881   4.092   0.647
 2349SOL    HW1 7058   1.799   4.135   0.686
 2349SOL    HW2 7059   1.853   4.019   0.584
 2350SOL     OW 7060   2.997   4.427   0.717
 2350SOL    HW1 7061   3.054   4.505   0.692
 2350SOL    HW2 7062   2.937   4.453   0.793
 2351SOL     OW 7063   3.617   4.331   0.231
 2351SOL    HW1 7064   3.605   4.318   0.132
 2351SOL    HW2 7065   3.587   4.250   0.280
 2352SOL     OW 7066   2.712   4.522   1.823
 2352SOL    HW1 7067   2.708   4.598   1.888
 2352SOL    HW2 7068   2.734   4.558   1.732
 2353SOL     OW 7069   2.547   4.736   0.665
 2353SOL    HW1 7070   2.616   4.720   0.735
 2353SOL    HW2 7071   2.474   4.793   0.703
 2354SOL     OW 7072   2.300   4.116   1.499
 2354SOL    HW1 7073   2.382   4.060   1.508
 2354SOL    HW2 7074   2.219   4.058   1.503
 2355SOL     OW 7075   3.465   4.171   0.737
 2355SOL    HW1 7076   3.391   4.217   0.687
 2355SOL    HW2 7077   3.516   4.239   0.790
 2356SOL     OW 7078   3.456   3.838   1.480
 2356SOL    HW1 7079   3.438   3.905   1.408
 2356SOL    HW2 7080   3.453   3.884   1.569
 2357SOL     OW 7081   1.984   4.367   0.563
 2357SOL    HW1 7082   1.939   4.279   0.580
 2357SOL    HW2 7083   1.983   4.421   0.647
 2358SOL     OW 7084   1.975   4.461   1.597
 2358SOL    HW1 7085   2.063   4.448   1.642
 2358SOL    HW2 7086   1.962   4.558   1.575
 2359SOL     OW 7087   2.671   3.728   0.502
 2359SOL    HW1 7088   2.711   3.819   0.493
 2359SOL    HW2 7089   2.571   3.736   0.508
 2360SOL     OW 7090   2.179   3.975   1.801
 2360SOL    HW1 7091   2.250   4.046   1.807
 2360SOL    HW2 7092   2.091   4.014   1.829
 2361SOL     OW 7093   2.460   4.453   0.270
 2361SOL    HW1 7094   2.484   4.522   0.202
 2361SOL    HW2 7095   2.382   4.486   0.324
 2362SOL     OW 7096   3.143   4.069   0.944
 2362SOL    HW1 7097   3.057   4.019   0.931
 2362SOL    HW2 7098   3.205   4.015   1.000
 2363SOL     OW 7099   2.669   4.329   1.465
 2363SOL    HW1 7100   2.622   4.326   1.554
 2363SOL    HW2 7101   2.618   4.274   1.399
 2364SOL     OW 7102   3.256   4.193   1.674
 2364SOL    HW1 7103   3.236   4.236   1.762
 2364SOL    HW2 7104   3.334   4.131   1.683
 2365SOL     OW 7105   2.853   4.134   1.242
 2365SOL    HW1 7106   2.776   4.168   1.296
 2365SOL    HW2 7107   2.819   4.083   1.163
 2366SOL     OW 7108   2.903   4.425   0.429
 2366SOL    HW1 7109   2.929   4.421   0.525
 2366SOL    HW2 7110   2.818   4.374   0.415
 2367SOL     OW 7111   1.938   4.535   0.789
 2367SOL    HW1 7112   2.037   4.523   0.798
 2367SOL    HW2 7113   1.914   4.630   0.810
 2368SOL     OW 7114   2.727   4.072   0.195
 2368SOL    HW1 7115   2.786   4.135   0.146
 2368SOL    HW2 7116   2.746   3.978   0.166
 2369SOL     OW 7117   3.581   4.309   1.831
 2369SOL    HW1 7118   3.555   4.398   1.795
 2369SOL    HW2 7119   3.579   4.241   1.758
 2370SOL     OW 7120   2.412   3.920   0.885
 2370SOL    HW1 7121   2.407   3.915   0.985
 2370SOL    HW2 7122   2.414   4.016   0.856
 2371SOL     OW 7123   3.320   4.459   0.728
 2371SOL    HW1 7124   3.315   4.394   0.803
 2371SOL    HW2 7125   3.400   4.518   0.741
 2372SOL     OW 7126   2.064   4.009   1.498
 2372SOL    HW1 7127   1.984   4.069   1.485
 2372SOL    HW2 7128   2.054   3.960   1.584
 2373SOL     OW 7129   3.262   3.831   0.426
 2373SOL    HW1 7130   3.238   3.794   0.336
 2373SOL    HW2 7131   3.361   3.847   0.430
 2374SOL     OW 7132   2.244   4.424   0.480
 2374SOL    HW1 7133   2.289   4.334   0.477
 2374SOL    HW2 7134   2.150   4.413   0.513
 2375SOL     OW 7135   3.409   3.946   1.729
 2375SOL    HW1 7136   3.404   3.983   1.821
 2375SOL    HW2 7137   3.337   3.877   1.717
 2376SOL     OW 7138   2.643   3.988   1.749
 2376SOL    HW1 7139   2.710   3.927   1.792
 2376SOL    HW2 7140   2.570   4.007   1.814
 2377SOL     OW 7141   3.213   4.314   1.433
 2377SOL    HW1 7142   3.241   4.271   1.518
 2377SOL    HW2 7143   3.238   4.410   1.434
 2378SOL     OW 7144   2.784   4.227   0.899
 2378SOL    HW1 7145   2.759   4.218   0.803
 2378SOL    HW2 7146   2.832   4.145   0.930
 2379SOL     OW 7147   2.401   3.788   0.512
 2379SOL    HW1 7148   2.320   3.789   0.570
 2379SOL    HW2 7149   2.404   3.871   0.457
 2380SOL     OW 7150   2.159   3.759   0.171
 2380SOL    HW1 7151   2.208   3.843   0.150
 2380SOL    HW2 7152   2.221   3.694   0.216
 2381SOL     OW 7153   2.797   3.960   0.480
 2381SOL    HW1 7154   2.749   4.001   0.402
 2381SOL    HW2 7155   2.896   3.958   0.461
 2382SOL     OW 7156   2.938   4.407   1.464
 2382SOL    HW1 7157   2.858   4.346   1.467
 2382SOL    HW2 7158   3.019   4.354   1.440
 2383SOL     OW 7159   2.321   4.876   0.741
 2383SOL    HW1 7160   2.250   4.849   0.806
 2383SOL    HW2 7161   2.295   4.848   0.648
 2384SOL     OW 7162   2.894   4.273   0.016
 2384SOL    HW1 7163   2.853   4.355  -0.023
 2384SOL    HW2 7164   2.958   4.299   0.089
 2385SOL     OW 7165   1.940   4.280   1.386
 2385SOL    HW1 7166   2.032   4.279   1.345
 2385SOL    HW2 7167   1.934   4.354   1.453
 2386SOL     OW 7168   2.423   3.946   1.147
 2386SOL    HW1 7169   2.461   3.862   1.184
 2386SOL    HW2 7170   2.335   3.965   1.191
 2387SOL     OW 7171   2.728   4.178   0.642
 2387SOL    HW1 7172   2.696   4.250   0.580
 2387SOL    HW2 7173   2.752   4.097   0.589
 2388SOL     OW 7174   2.879   3.763   0.753
 2388SOL    HW1 7175   2.807   3.768   0.684
 2388SOL    HW2 7176   2.855   3.694   0.822
 2389SOL     OW 7177   3.328   4.314   0.992
 2389SOL    HW1 7178   3.298   4.219   0.999
 2389SOL    HW2 7179   3.401   4.330   1.058
 2390SOL     OW 7180   3.719   4.557   0.377
 2390SOL    HW1 7181   3.761   4.493   0.441
 2390SOL    HW2 7182   3.681   4.506   0.299
 2391SOL     OW 7183   3.252   4.299   0.078
 2391SOL    HW1 7184   3.198   4.278   0.159
 2391SOL    HW2 7185   3.343   4.258   0.087
 2392SOL     OW 7186   2.389   3.980   0.328
 2392SOL    HW1 7187   2.416   3.921   0.253
 2392SOL    HW2 7188   2.389   4.075   0.297
 2393SOL     OW 7189   2.777   3.813   1.402
 2393SOL    HW1 7190   2.802   3.793   1.307
 2393SOL    HW2 7191   2.849   3.869   1.444
 2394SOL     OW 7192   2.272   4.537   1.251
 2394SOL    HW1 7193   2.358   4.549   1.301
 2394SOL    HW2 7194   2.230   4.450   1.278
 2395SOL     OW 7195   3.136   4.110   1.262
 2395SOL    HW1 7196   3.157   4.184   1.326
 2395SOL    HW2 7197   3.047   4.127   1.219
 2396SOL     OW 7198   2.428   4.261   0.865
 2396SOL    HW1 7199   2.440   4.327   0.791
 2396SOL    HW2 7200   2.474   4.295   0.948
 2397SOL     OW 7201   3.444   4.363   0.472
 2397SOL    HW1 7202   3.413   4.424   0.545
 2397SOL    HW2 7203   3.494   4.415   0.403
 2398SOL     OW 7204   2.264   4.475   1.598
 2398SOL    HW1 7205   2.332   4.530   1.551
 2398SOL    HW2 7206   2.304   4.387   1.625
 2399SOL     OW 7207   3.449   4.503   1.670
 2399SOL    HW1 7208   3.357   4.541   1.665
 2399SOL    HW2 7209   3.509   4.550   1.605
 2400SOL     OW 7210   2.875   3.829   1.770
 2400SOL    HW1 7211   2.881   3.914   1.718
 2400SOL    HW2 7212   2.907   3.753   1.713
 2401SOL     OW 7213   2.366   3.774   1.740
 2401SOL    HW1 7214   2.324   3.717   1.670
 2401SOL    HW2 7215   2.300   3.843   1.772
 2402SOL     OW 7216   2.435   4.594   1.029
 2402SOL    HW1 7217   2.479   4.683   1.020
 2402SOL    HW2 7218   2.372   4.594   1.106
 2403SOL     OW 7219   3.222   4.586   1.045
 2403SOL    HW1 7220   3.147   4.586   0.979
 2403SOL    HW2 7221   3.259   4.494   1.054
 2404SOL     OW 7222   3.071   4.249   0.275
 2404SOL    HW1 7223   3.084   4.165   0.329
 2404SOL    HW2 7224   3.042   4.323   0.335
 2405SOL     OW 7225   2.169   3.937   1.231
 2405SOL    HW1 7226   2.146   3.974   1.321
 2405SOL    HW2 7227   2.139   3.842   1.225
 2406SOL     OW 7228   2.594   4.358   1.064
 2406SOL    HW1 7229   2.653   4.332   0.988
 2406SOL    HW2 7230   2.566   4.454   1.053
 2407SOL     OW 7231   3.590   4.659   1.854
 2407SOL    HW1 7232   3.544   4.652   1.765
 2407SOL    HW2 7233   3.528   4.703   1.920
 2408SOL     OW 7234   2.169   3.787   0.618
 2408SOL    HW1 7235   2.158   3.881   0.651
 2408SOL    HW2 7236   2.164   3.724   0.695
 2409SOL     OW 7237   3.484   4.091   0.374
 2409SOL    HW1 7238   3.486   4.015   0.438
 2409SOL    HW2 7239   3.436   4.168   0.414
 2410SOL     OW 7240   2.885   4.490   0.966
 2410SOL    HW1 7241   2.900   4.511   1.062
 2410SOL    HW2 7242   2.855   4.395   0.957
 2411SOL     OW 7243   3.402   3.998   0.125
 2411SOL    HW1 7244   3.341   3.923   0.148
 2411SOL    HW2 7245   3.424   4.050   0.208
 2412SOL     OW 7246   2.181   4.534   0.949
 2412SOL    HW1 7247   2.274   4.570   0.954
 2412SOL    HW2 7248   2.175   4.449   1.001
 2413SOL     OW 7249   2.201   4.233   1.006
 2413SOL    HW1 7250   2.149   4.150   0.989
 2413SOL    HW2 7251   2.278   4.238   0.942
 2414SOL     OW 7252   3.000   4.104   1.678
 2414SOL    HW1 7253   2.955   4.167   1.742
 2414SOL    HW2 7254   3.093   4.135   1.661
 2415SOL     OW 7255   3.022   3.931   1.477
 2415SOL    HW1 7256   3.022   3.995   1.554
 2415SOL    HW2 7257   3.050   3.979   1.394
 2416SOL     OW 7258   2.864   4.520   1.238
 2416SOL    HW1 7259   2.905   4.488   1.324
 2416SOL    HW2 7260   2.768   4.493   1.235
 2417SOL     OW 7261   1.902   4.268   1.114
 2417SOL    HW1 7262   1.987   4.235   1.073
 2417SOL    HW2 7263   1.915   4.283   1.212
 2418SOL     OW 7264   2.051   4.244   1.722
 2418SOL    HW1 7265   2.110   4.204   1.652
 2418SOL    HW2 7266   1.993   4.315   1.681
 2419SOL     OW 7267   2.677   4.296   0.325
 2419SOL    HW1 7268   2.684   4.207   0.279
 2419SOL    HW2 7269   2.583   4.330   0.317
 2420SOL     OW 7270   3.519   4.328   1.206
 2420SOL    HW1 7271   3.481   4.259   1.268
 2420SOL    HW2 7272   3.601   4.292   1.162
 2421SOL     OW 7273   2.533   4.188   1.269
 2421SOL    HW1 7274   2.499   4.099   1.239
 2421SOL    HW2 7275   2.559   4.242   1.189
 2422SOL     OW 7276   2.335   4.224   0.191
 2422SOL    HW1 7277   2.396   4.304   0.195
 2422SOL    HW2 7278   2.240   4.255   0.198
 2423SOL     OW 7279   2.765   3.810   0.133
 2423SOL    HW1 7280   2.816   3.811   0.047
 2423SOL    HW2 7281   2.821   3.768   0.204
 2424SOL     OW 7282   3.588   3.859   0.523
 2424SOL    HW1 7283   3.661   3.842   0.456
 2424SOL    HW2 7284   3.557   3.772   0.561
 2425SOL     OW 7285   3.142   4.651   0.672
 2425SOL    HW1 7286   3.202   4.570   0.674
 2425SOL    HW2 7287   3.182   4.720   0.612
 2426SOL     OW 7288   3.703   3.899   0.963
 2426SOL    HW1 7289   3.742   3.814   0.927
 2426SOL    HW2 7290   3.605   3.901   0.944
 2427SOL     OW 7291   2.125   4.050   0.720
 2427SOL    HW1 7292   2.046   4.101   0.686
 2427SOL    HW2 7293   2.116   4.035   0.818
 2428SOL     OW 7294   2.876   3.960   0.971
 2428SOL    HW1 7295   2.868   3.924   0.878
 2428SOL    HW2 7296   2.874   3.884   1.036
 2429SOL     OW 7297   3.571   4.109   1.381
 2429SOL    HW1 7298   3.644   4.178   1.385
 2429SOL    HW2 7299   3.599   4.034   1.322
 2430SOL     OW 7300   1.967   4.737   1.726
 2430SOL    HW1 7301   1.890   4.704   1.780
 2430SOL    HW2 7302   2.052   4.707   1.768
 2431SOL     OW 7303   2.534   3.927   1.489
 2431SOL    HW1 7304   2.624   3.911   1.449
 2431SOL    HW2 7305   2.542   3.932   1.588
 2432SOL     OW 7306   3.302   4.580   1.398
 2432SOL    HW1 7307   3.245   4.632   1.335
 2432SOL    HW2 7308   3.398   4.592   1.374
 2433SOL     OW 7309   1.934   3.890   0.318
 2433SOL    HW1 7310   1.917   3.973   0.264
 2433SOL    HW2 7311   2.024   3.853   0.296
 2434SOL     OW 7312   2.475   4.566   1.431
 2434SOL    HW1 7313   2.531   4.647   1.414
 2434SOL    HW2 7314   2.534   4.486   1.434
 2435SOL     OW 7315   2.578   4.289   1.708
 2435SOL    HW1 7316   2.597   4.354   1.782
 2435SOL    HW2 7317   2.638   4.209   1.717
 2436SOL     OW 7318   3.536   4.607   1.254
 2436SOL    HW1 7319   3.509   4.518   1.217
 2436SOL    HW2 7320   3.537   4.675   1.181
 2437SOL     OW 7321   3.087   4.049   0.449
 2437SOL    HW1 7322   3.152   3.975   0.438
 2437SOL    HW2 7323   3.107   4.099   0.533
 2438SOL     OW 7324   2.456   4.469   0.652
 2438SOL    HW1 7325   2.506   4.554   0.633
 2438SOL    HW2 7326   2.368   4.471   0.604
 2439SOL     OW 7327   3.639   4.066   1.642
 2439SOL    HW1 7328   3.622   4.097   1.548
 2439SOL    HW2 7329   3.555   4.029   1.680
 2440SOL     OW 7330   3.686   3.916   1.227
 2440SOL    HW1 7331   3.682   3.826   1.271
 2440SOL    HW2 7332   3.689   3.905   1.128
 2441SOL     OW 7333   2.290   4.148   0.520
 2441SOL    HW1 7334   2.320   4.076   0.458
 2441SOL    HW2 7335   2.251   4.108   0.603
 2442SOL     OW 7336   2.179   4.271   1.280
 2442SOL    HW1 7337   2.217   4.212   1.352
 2442SOL    HW2 7338   2.219   4.245   1.192
 2443SOL     OW 7339   3.286   3.938   1.112
 2443SOL    HW1 7340   3.338   3.873   1.167
 2443SOL    HW2 7341   3.237   4.001   1.173
 2444SOL     OW 7342   2.863   3.758   1.154
 2444SOL    HW1 7343   2.800   3.686   1.123
 2444SOL    HW2 7344   2.956   3.722   1.154
 2445SOL     OW 7345   3.214   3.776   0.168
 2445SOL    HW1 7346   3.249   3.735   0.084
 2445SOL    HW2 7347   3.124   3.738   0.188
 2446SOL     OW 7348   3.162   4.177   0.691
 2446SOL    HW1 7349   3.103   4.257   0.695
 2446SOL    HW2 7350   3.177   4.142   0.784
 2447SOL     OW 7351   3.455   3.945   0.882
 2447SOL    HW1 7352   3.371   3.944   0.936
 2447SOL    HW2 7353   3.457   4.028   0.826
 2448SOL     OW 7354   2.092   4.352   1.975
 2448SOL    HW1 7355   1.999   4.350   2.012
 2448SOL    HW2 7356   2.093   4.313   1.883
 2449SOL     OW 7357   2.087   3.999   2.858
 2449SOL    HW1 7358   2.122   3.982   2.950
 2449SOL    HW2 7359   1.999   3.954   2.846
 2450SOL     OW 7360   1.881   4.092   2.509
 2450SOL    HW1 7361   1.799   4.135   2.548
 2450SOL    HW2 7362   1.853   4.019   2.446
 2451SOL     OW 7363   2.997   4.427   2.579
 2451SOL    HW1 7364   3.054   4.505   2.554
 2451SOL    HW2 7365   2.937   4.453   2.655
 2452SOL     OW 7366   3.617   4.331   2.093
 2452SOL    HW1 7367   3.605   4.318   1.994
 2452SOL    HW2 7368   3.587   4.250   2.142
 2453SOL     OW 7369   2.712   4.522   3.685
 2453SOL    HW1 7370   2.708   4.598   3.750
 2453SOL    HW2 7371   2.734   4.558   3.594
 2454SOL     OW 7372   2.547   4.736   2.527
 2454SOL    HW1 7373   2.616   4.720   2.597
 2454SOL    HW2 7374   2.474   4.793   2.565
 2455SOL     OW 7375   2.300   4.116   3.361
 2455SOL    HW1 7376   2.382   4.060   3.370
 2455SOL    HW2 7377   2.219   4.058   3.365
 2456SOL     OW 7378   3.465   4.171   2.599
 2456SOL    HW1 7379   3.391   4.217   2.549
 2456SOL    HW2 7380   3.516   4.239   2.652
 2457SOL     OW 7381   3.456   3.838   3.342
 2457SOL    HW1 7382   3.438   3.905   3.270
 2457SOL    HW2 7383   3.453   3.884   3.431
 2458SOL     OW 7384   1.984   4.367   2.425
 2458SOL    HW1 7385   1.939   4.279   2.442
 2458SOL    HW2 7386   1.983   4.421   2.509
 2459SOL     OW 7387   1.975   4.461   3.459
 2459SOL    HW1 7388   2.063   4.448   3.504
 2459SOL    HW2 7389   1.962   4.558   3.437
 2460SOL     OW 7390   2.671   3.728   2.364
 2460SOL    HW1 7391   2.711   3.819   2.355
 2460SOL    HW2 7392   2.571   3.736   2.370
 2461SOL     OW 7393   2.179   3.975   3.663
 2461SOL    HW1 7394   2.250   4.046   3.669
 2461SOL    HW2 7395   2.091   4.014   3.691
 2462SOL     OW 7396   2.460   4.453   2.132
 2462SOL    HW1 7397   2.484   4.522   2.064
 2462SOL    HW2 7398   2.382   4.486   2.186
 2463SOL     OW 7399   3.143   4.069   2.806
 2463SOL    HW1 7400   3.057   4.019   2.793
 2463SOL    HW2 7401   3.205   4.015   2.862
 2464SOL     OW 7402   2.669   4.329   3.327
 2464SOL    HW1 7403   2.622   4.326   3.416
 2464SOL    HW2 7404   2.618   4.274   3.261
 2465SOL     OW 7405   3.256   4.193   3.536
 2465SOL    HW1 7406   3.236   4.236   3.624
 2465SOL    HW2 7407   3.334   4.131   3.545
 2466SOL     OW 7408   2.853   4.134   3.104
 2466SOL    HW1 7409   2.776   4.168   3.158
 2466SOL    HW2 7410   2.819   4.083   3.025
 2467SOL     OW 7411   2.903   4.425   2.291
 2467SOL    HW1 7412   2.929   4.421   2.387
 2467SOL    HW2 7413   2.818   4.374   2.277
 2468SOL     OW 7414   1.938   4.535   2.651
 2468SOL    HW1 7415   2.037   4.523   2.660
 2468SOL    HW2 7416   1.914   4.630   2.672
 2469SOL     OW 7417   2.727   4.072   2.057
 2469SOL    HW1 7418   2.786   4.135   2.008
 2469SOL    HW2 7419   2.746   3.978   2.028
 2470SOL     OW 7420   3.581   4.309   3.693
 2470SOL    HW1 7421   3.555   4.398   3.657
 2470SOL    HW2 7422   3.579   4.241   3.620
 2471SOL     OW 7423   2.412   3.920   2.747
 2471SOL    HW1 7424   2.407   3.915   2.847
 2471SOL    HW2 7425   2.414   4.016   2.718
 2472SOL     OW 7426   3.320   4.459   2.590
 2472SOL    HW1 7427   3.315   4.394   2.665
 2472SOL    HW2 7428   3.400   4.518   2.603
 2473SOL     OW 7429   2.064   4.009   3.360
 2473SOL    HW1 7430   1.984   4.069   3.347
 2473SOL    HW2 7431   2.054   3.960   3.446
 2474SOL     OW 7432   3.262   3.831   2.288
 2474SOL    HW1 7433   3.238   3.794   2.198
 2474SOL    HW2 7434   3.361   3.847   2.292
 2475SOL     OW 7435   2.244   4.424   2.342
 2475SOL    HW1 7436   2.289   4.334   2.339
 2475SOL    HW2 7437   2.150   4.413   2.375
 2476SOL     OW 7438   3.409   3.946   3.591
 2476SOL    HW1 7439   3.404   3.983   3.683
 2476SOL    HW2 7440   3.337   3.877   3.579
 2477SOL     OW 7441   2.476   3.846   1.979
 2477SOL    HW1 7442   2.574   3.824   1.986
 2477SOL    HW2 7443   2.445   3.829   1.886
 2478SOL     OW 7444   2.643   3.988   3.611
 2478SOL    HW1 7445   2.710   3.927   3.654
 2478SOL    HW2 7446   2.570   4.007   3.676
 2479SOL     OW 7447   3.213   4.314   3.295
 2479SOL    HW1 7448   3.241   4.271   3.380
 2479SOL    HW2 7449   3.238   4.410   3.296
 2480SOL     OW 7450   2.784   4.227   2.761
 2480SOL    HW1 7451   2.759   4.218   2.665
 2480SOL    HW2 7452   2.832   4.145   2.792
 2481SOL     OW 7453   2.401   3.788   2.374
 2481SOL    HW1 7454   2.320   3.789   2.432
 2481SOL    HW2 7455   2.404   3.871   2.319
 2482SOL     OW 7456   2.159   3.759   2.033
 2482SOL    HW1 7457   2.208   3.843   2.012
 2482SOL    HW2 7458   2.221   3.694   2.078
 2483SOL     OW 7459   2.797   3.960   2.342
 2483SOL    HW1 7460   2.749   4.001   2.264
 2483SOL    HW2 7461   2.896   3.958   2.323
 2484SOL     OW 7462   2.938   4.407   3.326
 2484SOL    HW1 7463   2.858   4.346   3.329
 2484SOL    HW2 7464   3.019   4.354   3.302
 2485SOL     OW 7465   2.321   4.876   2.603
 2485SOL    HW1 7466   2.250   4.849   2.668
 2485SOL    HW2 7467   2.295   4.848   2.510
 2486SOL     OW 7468   2.894   4.273   1.878
 2486SOL    HW1 7469   2.853   4.355   1.839
 2486SOL    HW2 7470   2.958   4.299   1.951
 2487SOL     OW 7471   1.940   4.280   3.248
 2487SOL    HW1 7472   2.032   4.279   3.207
 2487SOL    HW2 7473   1.934   4.354   3.315
 2488SOL     OW 7474   2.423   3.946   3.009
 2488SOL    HW1 7475   2.461   3.862   3.046
 2488SOL    HW2 7476   2.335   3.965   3.053
 2489SOL     OW 7477   2.728   4.178   2.504
 2489SOL    HW1 7478   2.696   4.250   2.442
 2489SOL    HW2 7479   2.752   4.097   2.451
 2490SOL     OW 7480   2.879   3.763   2.615
 2490SOL    HW1 7481   2.807   3.768   2.546
 2490SOL    HW2 7482   2.855   3.694   2.684
 2491SOL     OW 7483   3.328   4.314   2.854
 2491SOL    HW1 7484   3.298   4.219   2.861
 2491SOL    HW2 7485   3.401   4.330   2.920
 2492SOL     OW 7486   3.719   4.557   2.239
 2492SOL    HW1 7487   3.761   4.493   2.303
 2492SOL    HW2 7488   3.681   4.506   2.161
 2493SOL     OW 7489   3.252   4.299   1.940
 2493SOL    HW1 7490   3.198   4.278   2.021
 2493SOL    HW2 7491   3.343   4.258   1.949
 2494SOL     OW 7492   2.389   3.980   2.190
 2494SOL    HW1 7493   2.416   3.921   2.115
 2494SOL    HW2 7494   2.389   4.075   2.159
 2495SOL     OW 7495   2.777   3.813   3.264
 2495SOL    HW1 7496   2.802   3.793   3.169
 2495SOL    HW2 7497   2.849   3.869   3.306
 2496SOL     OW 7498   2.272   4.537   3.113
 2496SOL    HW1 7499   2.358   4.549   3.163
 2496SOL    HW2 7500   2.230   4.450   3.140
 2497SOL     OW 7501   3.136   4.110   3.124
 2497SOL    HW1 7502   3.157   4.184   3.188
 2497SOL    HW2 7503   3.047   4.127   3.081
 2498SOL     OW 7504   2.428   4.261   2.727
 2498SOL    HW1 7505   2.440   4.327   2.653
 2498SOL    HW2 7506   2.474   4.295   2.810
 2499SOL     OW 7507   3.444   4.363   2.334
 2499SOL    HW1 7508   3.413   4.424   2.407
 2499SOL    HW2 7509   3.494   4.415   2.265
 2500SOL     OW 7510   2.264   4.475   3.460
 2500SOL    HW1 7511   2.332   4.530   3.413
 2500SOL    HW2 7512   2.304   4.387   3.487
 2501SOL     OW 7513   3.449   4.503   3.532
 2501SOL    HW1 7514   3.357   4.541   3.527
 2501SOL    HW2 7515   3.509   4.550   3.467
 2502SOL     OW 7516   2.875   3.829   3.632
 2502SOL    HW1 7517   2.881   3.914   3.580
 2502SOL    HW2 7518   2.907   3.753   3.575
 2503SOL     OW 7519   2.366   3.774   3.602
 2503SOL    HW1 7520   2.324   3.717   3.532
 2503SOL    HW2 7521   2.300   3.843   3.634
 2504SOL     OW 7522   2.435   4.594   2.891
 2504SOL    HW1 7523   2.479   4.683   2.882
 2504SOL    HW2 7524   2.372   4.594   2.968
 2505SOL     OW 7525   3.222   4.586   2.907
 2505SOL    HW1 7526   3.147   4.586   2.841
 2505SOL    HW2 7527   3.259   4.494   2.916
 2506SOL     OW 7528   3.071   4.249   2.137
 2506SOL    HW1 7529   3.084   4.165   2.191
 2506SOL    HW2 7530   3.042   4.323   2.197
 2507SOL     OW 7531   2.169   3.937   3.093
 2507SOL    HW1 7532   2.146   3.974   3.183
 2507SOL    HW2 7533   2.139   3.842   3.087
 2508SOL     OW 7534   2.594   4.358   2.926
 2508SOL    HW1 7535   2.653   4.332   2.850
 2508SOL    HW2 7536   2.566   4.454   2.915
 2509SOL     OW 7537   3.590   4.659   3.716
 2509SOL    HW1 7538   3.544   4.652   3.627
 2509SOL    HW2 7539   3.528   4.703   3.782
 2510SOL     OW 7540   2.169   3.787   2.480
 2510SOL    HW1 7541   2.158   3.881   2.513
 2510SOL    HW2 7542   2.164   3.724   2.557
 2511SOL     OW 7543   3.484   4.091   2.236
 2511SOL    HW1 7544   3.486   4.015   2.300
 2511SOL    HW2 7545   3.436   4.168   2.276
 2512SOL     OW 7546   2.885   4.490   2.828
 2512SOL    HW1 7547   2.900   4.511   2.924
 2512SOL    HW2 7548   2.855   4.395   2.819
 2513SOL     OW 7549   3.402   3.998   1.987
 2513SOL    HW1 7550   3.341   3.923   2.010
 2513SOL    HW2 7551   3.424   4.050   2.070
 2514SOL     OW 7552   2.181   4.534   2.811
 2514SOL    HW1 7553   2.274   4.570   2.816
 2514SOL    HW2 7554   2.175   4.449   2.863
 2515SOL     OW 7555   2.201   4.233   2.868
 2515SOL    HW1 7556   2.149   4.150   2.851
 2515SOL    HW2 7557   2.278   4.238   2.804
 2516SOL     OW 7558   3.000   4.104   3.540
 2516SOL    HW1 7559   2.955   4.167   3.604
 2516SOL    HW2 7560   3.093   4.135   3.523
 2517SOL     OW 7561   3.022   3.931   3.339
 2517SOL    HW1 7562   3.022   3.995   3.416
 2517SOL    HW2 7563   3.050   3.979   3.256
 2518SOL     OW 7564   2.864   4.520   3.100
 2518SOL    HW1 7565   2.905   4.488   3.186
 2518SOL    HW2 7566   2.768   4.493   3.097
 2519SOL     OW 7567   1.902   4.268   2.976
 2519SOL    HW1 7568   1.987   4.235   2.935
 2519SOL    HW2 7569   1.915   4.283   3.074
 2520SOL     OW 7570   2.051   4.244   3.584
 2520SOL    HW1 7571   2.110   4.204   3.514
 2520SOL    HW2 7572   1.993   4.315   3.543
 2521SOL     OW 7573   2.677   4.296   2.187
 2521SOL    HW1 7574   2.684   4.207   2.141
 2521SOL    HW2 7575   2.583   4.330   2.179
 2522SOL     OW 7576   3.519   4.328   3.068
 2522SOL    HW1 7577   3.481   4.259   3.130
 2522SOL    HW2 7578   3.601   4.292   3.024
 2523SOL     OW 7579   2.533   4.188   3.131
 2523SOL    HW1 7580   2.499   4.099   3.101
 2523SOL    HW2 7581   2.559   4.242   3.051
 2524SOL     OW 7582   2.335   4.224   2.053
 2524SOL    HW1 7583   2.396   4.304   2.057
 2524SOL    HW2 7584   2.240   4.255   2.060
 2525SOL     OW 7585   3.588   3.859   2.385
 2525SOL    HW1 7586   3.661   3.842   2.318
 2525SOL    HW2 7587   3.557   3.772   2.423
 2526SOL     OW 7588   3.142   4.651   2.534
 2526SOL    HW1 7589   3.202   4.570   2.536
 2526SOL    HW2 7590   3.182   4.720   2.474
 2527SOL     OW 7591   3.703   3.899   2.825
 2527SOL    HW1 7592   3.742   3.814   2.789
 2527SOL    HW2 7593   3.605   3.901   2.806
 2528SOL     OW 7594   2.125   4.050   2.582
 2528SOL    HW1 7595   2.046   4.101   2.548
 2528SOL    HW2 7596   2.116   4.035   2.680
 2529SOL     OW 7597   2.778   4.634   2.153
 2529SOL    HW1 7598   2.841   4.672   2.085
 2529SOL    HW2 7599   2.818   4.551   2.192
 2530SOL     OW 7600   2.876   3.960   2.833
 2530SOL    HW1 7601   2.868   3.924   2.740
 2530SOL    HW2 7602   2.874   3.884   2.898
 2531SOL     OW 7603   3.571   4.109   3.243
 2531SOL    HW1 7604   3.644   4.178   3.247
 2531SOL    HW2 7605   3.599   4.034   3.184
 2532SOL     OW 7606   1.967   4.737   3.588
 2532SOL    HW1 7607   1.890   4.704   3.642
 2532SOL    HW2 7608   2.052   4.707   3.630
 2533SOL     OW 7609   2.534   3.927   3.351
 2533SOL    HW1 7610   2.624   3.911   3.311
 2533SOL    HW2 7611   2.542   3.932   3.450
 2534SOL     OW 7612   1.937   4.069   1.895
 2534SOL    HW1 7613   1.845   4.041   1.866
 2534SOL    HW2 7614   1.968   4.146   1.839
 2535SOL     OW 7615   3.302   4.580   3.260
 2535SOL    HW1 7616   3.245   4.632   3.197
 2535SOL    HW2 7617   3.398   4.592   3.236
 2536SOL     OW 7618   1.934   3.890   2.180
 2536SOL    HW1 7619   1.917   3.973   2.126
 2536SOL    HW2 7620   2.024   3.853   2.158
 2537SOL     OW 7621   2.475   4.566   3.293
 2537SOL    HW1 7622   2.531   4.647   3.276
 2537SOL    HW2 7623   2.534   4.486   3.296
 2538SOL     OW 7624   2.578   4.289   3.570
 2538SOL    HW1 7625   2.597   4.354   3.644
 2538SOL    HW2 7626   2.638   4.209   3.579
 2539SOL     OW 7627   3.536   4.607   3.116
 2539SOL    HW1 7628   3.509   4.518   3.079
 2539SOL    HW2 7629   3.537   4.675   3.043
 2540SOL     OW 7630   3.087   4.049   2.311
 2540SOL    HW1 7631   3.152   3.975   2.300
 2540SOL    HW2 7632   3.107   4.099   2.395
 2541SOL     OW 7633   2.456   4.469   2.514
 2541SOL    HW1 7634   2.506   4.554   2.495
 2541SOL    HW2 7635   2.368   4.471   2.466
 2542SOL     OW 7636   3.639   4.066   3.504
 2542SOL    HW1 7637   3.622   4.097   3.410
 2542SOL    HW2 7638   3.555   4.029   3.542
 2543SOL     OW 7639   3.686   3.916   3.089
 2543SOL    HW1 7640   3.682   3.826   3.133
 2543SOL    HW2 7641   3.689   3.905   2.990
 2544SOL     OW 7642   2.290   4.148   2.382
 2544SOL    HW1 7643   2.320   4.076   2.320
 2544SOL    HW2 7644   2.251   4.108   2.465
 2545SOL     OW 7645   2.179   4.271   3.142
 2545SOL    HW1 7646   2.217   4.212   3.214
 2545SOL    HW2 7647   2.219   4.245   3.054
 2546SOL     OW 7648   3.286   3.938   2.974
 2546SOL    HW1 7649   3.338   3.873   3.029
 2546SOL    HW2 7650   3.237   4.001   3.035
 2547SOL     OW 7651   2.863   3.758   3.016
 2547SOL    HW1 7652   2.800   3.686   2.985
 2547SOL    HW2 7653   2.956   3.722   3.016
 2548SOL     OW 7654   3.214   3.776   2.030
 2548SOL    HW1 7655   3.249   3.735   1.946
 2548SOL    HW2 7656   3.124   3.738   2.050
 2549SOL     OW 7657   3.162   4.177   2.553
 2549SOL    HW1 7658   3.103   4.257   2.557
 2549SOL    HW2 7659   3.177   4.142   2.646
 2550SOL     OW 7660   3.455   3.945   2.744
 2550SOL    HW1 7661   3.371   3.944   2.798
 2550SOL    HW2 7662   3.457   4.028   2.688
 2551SOL     OW 7663   2.092   4.352   3.837
 2551SOL    HW1 7664   1.999   4.350   3.874
 2551SOL    HW2 7665   2.093   4.313   3.745
 2552SOL     OW 7666   2.087   3.999   4.720
 2552SOL    HW1 7667   2.122   3.982   4.812
 2552SOL    HW2 7668   1.999   3.954   4.708
 2553SOL     OW 7669   1.881   4.092   4.371
 2553SOL    HW1 7670   1.799   4.135   4.410
 2553SOL    HW2 7671   1.853   4.019   4.308
 2554SOL     OW 7672   2.997   4.427   4.441
 2554SOL    HW1 7673   3.054   4.505   4.416
 2554SOL    HW2 7674   2.937   4.453   4.517
 2555SOL     OW 7675   3.617   4.331   3.955
 2555SOL    HW1 7676   3.605   4.318   3.856
 2555SOL    HW2 7677   3.587   4.250   4.004
 2556SOL     OW 7678   2.547   4.736   4.389
 2556SOL    HW1 7679   2.616   4.720   4.459
 2556SOL    HW2 7680   2.474   4.793   4.427
 2557SOL     OW 7681   3.465   4.171   4.461
 2557SOL    HW1 7682   3.391   4.217   4.411
 2557SOL    HW2 7683   3.516   4.239   4.514
 2558SOL     OW 7684   1.984   4.367   4.287
 2558SOL    HW1 7685   1.939   4.279   4.304
 2558SOL    HW2 7686   1.983   4.421   4.371
 2559SOL     OW 7687   2.671   3.728   4.226
 2559SOL    HW1 7688   2.711   3.819   4.217
 2559SOL    HW2 7689   2.571   3.736   4.232
 2560SOL     OW 7690   2.460   4.453   3.994
 2560SOL    HW1 7691   2.484   4.522   3.926
 2560SOL    HW2 7692   2.382   4.486   4.048
 2561SOL     OW 7693   3.143   4.069   4.668
 2561SOL    HW1 7694   3.057   4.019   4.655
 2561SOL    HW2 7695   3.205   4.015   4.724
 2562SOL     OW 7696   2.903   4.425   4.153
 2562SOL    HW1 7697   2.929   4.421   4.249
 2562SOL    HW2 7698   2.818   4.374   4.139
 2563SOL     OW 7699   1.938   4.535   4.513
 2563SOL    HW1 7700   2.037   4.523   4.522
 2563SOL    HW2 7701   1.914   4.630   4.534
 2564SOL     OW 7702   2.727   4.072   3.919
 2564SOL    HW1 7703   2.786   4.135   3.870
 2564SOL    HW2 7704   2.746   3.978   3.890
 2565SOL     OW 7705   2.412   3.920   4.609
 2565SOL    HW1 7706   2.407   3.915   4.709
 2565SOL    HW2 7707   2.414   4.016   4.580
 2566SOL     OW 7708   3.320   4.459   4.452
 2566SOL    HW1 7709   3.315   4.394   4.527
 2566SOL    HW2 7710   3.400   4.518   4.465
 2567SOL     OW 7711   3.262   3.831   4.150
 2567SOL    HW1 7712   3.238   3.794   4.060
 2567SOL    HW2 7713   3.361   3.847   4.154
 2568SOL     OW 7714   2.244   4.424   4.204
 2568SOL    HW1 7715   2.289   4.334   4.201
 2568SOL    HW2 7716   2.150   4.413   4.237
 2569SOL     OW 7717   2.476   3.846   3.841
 2569SOL    HW1 7718   2.574   3.824   3.848
 2569SOL    HW2 7719   2.445   3.829   3.748
 2570SOL     OW 7720   2.401   3.788   4.236
 2570SOL    HW1 7721   2.320   3.789   4.294
 2570SOL    HW2 7722   2.404   3.871   4.181
 2571SOL     OW 7723   2.159   3.759   3.895
 2571SOL    HW1 7724   2.208   3.843   3.874
 2571SOL    HW2 7725   2.221   3.694   3.940
 2572SOL     OW 7726   2.797   3.960   4.204
 2572SOL    HW1 7727   2.749   4.001   4.126
 2572SOL    HW2 7728   2.896   3.958   4.185
 2573SOL     OW 7729   2.321   4.876   4.465
 2573SOL    HW1 7730   2.250   4.849   4.530
 2573SOL    HW2 7731   2.295   4.848   4.372
 2574SOL     OW 7732   2.894   4.273   3.740
 2574SOL    HW1 7733   2.853   4.355   3.701
 2574SOL    HW2 7734   2.958   4.299   3.813
 2575SOL     OW 7735   2.728   4.178   4.366
 2575SOL    HW1 7736   2.696   4.250   4.304
 2575SOL    HW2 7737   2.752   4.097   4.313
 2576SOL     OW 7738   2.879   3.763   4.477
 2576SOL    HW1 7739   2.807   3.768   4.408
 2576SOL    HW2 7740   2.855   3.694   4.546
 2577SOL     OW 7741   3.291   4.897   4.591
 2577SOL    HW1 7742   3.236   4.813   4.584
 2577SOL    HW2 7743   3.317   4.926   4.499
 2578SOL     OW 7744   3.719   4.557   4.101
 2578SOL    HW1 7745   3.761   4.493   4.165
 2578SOL    HW2 7746   3.681   4.506   4.023
 2579SOL     OW 7747   3.252   4.299   3.802
 2579SOL    HW1 7748   3.198   4.278   3.883
 2579SOL    HW2 7749   3.343   4.258   3.811
 2580SOL     OW 7750   2.389   3.980   4.052
 2580SOL    HW1 7751   2.416   3.921   3.977
 2580SOL    HW2 7752   2.389   4.075   4.021
 2581SOL     OW 7753   2.428   4.261   4.589
 2581SOL    HW1 7754   2.440   4.327   4.515
 2581SOL    HW2 7755   2.474   4.295   4.672
 2582SOL     OW 7756   3.444   4.363   4.196
 2582SOL    HW1 7757   3.413   4.424   4.269
 2582SOL    HW2 7758   3.494   4.415   4.127
 2583SOL     OW 7759   3.071   4.249   3.999
 2583SOL    HW1 7760   3.084   4.165   4.053
 2583SOL    HW2 7761   3.042   4.323   4.059
 2584SOL     OW 7762   2.169   3.787   4.342
 2584SOL    HW1 7763   2.158   3.881   4.375
 2584SOL    HW2 7764   2.164   3.724   4.419
 2585SOL     OW 7765   3.484   4.091   4.098
 2585SOL    HW1 7766   3.486   4.015   4.162
 2585SOL    HW2 7767   3.436   4.168   4.138
 2586SOL     OW 7768   3.402   3.998   3.849
 2586SOL    HW1 7769   3.341   3.923   3.872
 2586SOL    HW2 7770   3.424   4.050   3.932
 2587SOL     OW 7771   2.677   4.296   4.049
 2587SOL    HW1 7772   2.684   4.207   4.003
 2587SOL    HW2 7773   2.583   4.330   4.041
 2588SOL     OW 7774   2.335   4.224   3.915
 2588SOL    HW1 7775   2.396   4.304   3.919
 2588SOL    HW2 7776   2.240   4.255   3.922
 2589SOL     OW 7777   3.588   3.859   4.247
 2589SOL    HW1 7778   3.661   3.842   4.180
 2589SOL    HW2 7779   3.557   3.772   4.285
 2590SOL     OW 7780   3.142   4.651   4.396
 2590SOL    HW1 7781   3.202   4.570   4.398
 2590SOL    HW2 7782   3.182   4.720   4.336
 2591SOL     OW 7783   3.703   3.899   4.687
 2591SOL    HW1 7784   3.742   3.814   4.651
 2591SOL    HW2 7785   3.605   3.901   4.668
 2592SOL     OW 7786   2.125   4.050   4.444
 2592SOL    HW1 7787   2.046   4.101   4.410
 2592SOL    HW2 7788   2.116   4.035   4.542
 2593SOL     OW 7789   2.778   4.634   4.015
 2593SOL    HW1 7790   2.841   4.672   3.947
 2593SOL    HW2 7791   2.818   4.551   4.054
 2594SOL     OW 7792   1.937   4.069   3.757
 2594SOL    HW1 7793   1.845   4.041   3.728
 2594SOL    HW2 7794   1.968   4.146   3.701
 2595SOL     OW 7795   1.934   3.890   4.042
 2595SOL    HW1 7796   1.917   3.973   3.988
 2595SOL    HW2 7797   2.024   3.853   4.020
 2596SOL     OW 7798   3.087   4.049   4.173
 2596SOL    HW1 7799   3.152   3.975   4.162
 2596SOL    HW2 7800   3.107   4.099   4.257
 2597SOL     OW 7801   2.456   4.469   4.376
 2597SOL    HW1 7802   2.506   4.554   4.357
 2597SOL    HW2 7803   2.368   4.471   4.328
 2598SOL     OW 7804   2.290   4.148   4.244
 2598SOL    HW1 7805   2.320   4.076   4.182
 2598SOL    HW2 7806   2.251   4.108   4.327
 2599SOL     OW 7807   3.214   3.776   3.892
 2599SOL    HW1 7808   3.249   3.735   3.808
 2599SOL    HW2 7809   3.124   3.738   3.912
 2600SOL     OW 7810   3.162   4.177   4.415
 2600SOL    HW1 7811   3.103   4.257   4.419
 2600SOL    HW2 7812   3.177   4.142   4.508
 2601SOL     OW 7813   3.954   0.628   0.113
 2601SOL    HW1 7814   3.861   0.626   0.150
 2601SOL    HW2 7815   3.955   0.589   0.021
 2602SOL     OW 7816   3.949   0.275   0.996
 2602SOL    HW1 7817   3.984   0.258   1.088
 2602SOL    HW2 7818   3.861   0.230   0.984
 2603SOL     OW 7819   3.743   0.368   0.647
 2603SOL    HW1 7820   3.661   0.411   0.686
 2603SOL    HW2 7821   3.715   0.295   0.584
 2604SOL     OW 7822   4.293   1.275   1.165
 2604SOL    HW1 7823   4.200   1.268   1.128
 2604SOL    HW2 7824   4.304   1.364   1.209
 2605SOL     OW 7825   4.574   0.798   1.823
 2605SOL    HW1 7826   4.570   0.874   1.888
 2605SOL    HW2 7827   4.596   0.834   1.732
 2606SOL     OW 7828   4.409   1.012   0.665
 2606SOL    HW1 7829   4.478   0.996   0.735
 2606SOL    HW2 7830   4.336   1.069   0.703
 2607SOL     OW 7831   4.410   1.161   1.803
 2607SOL    HW1 7832   4.470   1.240   1.817
 2607SOL    HW2 7833   4.324   1.192   1.762
 2608SOL     OW 7834   4.059   1.435   1.061
 2608SOL    HW1 7835   3.981   1.404   1.008
 2608SOL    HW2 7836   4.117   1.493   1.004
 2609SOL     OW 7837   4.162   0.392   1.499
 2609SOL    HW1 7838   4.244   0.336   1.508
 2609SOL    HW2 7839   4.081   0.334   1.503
 2610SOL     OW 7840   3.955   1.713   0.483
 2610SOL    HW1 7841   3.989   1.790   0.537
 2610SOL    HW2 7842   3.999   1.713   0.393
 2611SOL     OW 7843   3.954   1.434   0.538
 2611SOL    HW1 7844   3.928   1.530   0.538
 2611SOL    HW2 7845   3.883   1.380   0.583
 2612SOL     OW 7846   3.964   1.091   0.886
 2612SOL    HW1 7847   3.978   1.007   0.938
 2612SOL    HW2 7848   3.909   1.155   0.941
 2613SOL     OW 7849   4.344   1.786   1.439
 2613SOL    HW1 7850   4.252   1.769   1.474
 2613SOL    HW2 7851   4.372   1.878   1.465
 2614SOL     OW 7852   4.330   0.964   0.123
 2614SOL    HW1 7853   4.337   1.048   0.069
 2614SOL    HW2 7854   4.376   0.977   0.211
 2615SOL     OW 7855   3.846   0.643   0.563
 2615SOL    HW1 7856   3.801   0.555   0.580
 2615SOL    HW2 7857   3.845   0.697   0.647
 2616SOL     OW 7858   3.751   1.596   0.117
 2616SOL    HW1 7859   3.732   1.500   0.138
 2616SOL    HW2 7860   3.718   1.654   0.192
 2617SOL     OW 7861   3.837   0.737   1.597
 2617SOL    HW1 7862   3.925   0.724   1.642
 2617SOL    HW2 7863   3.824   0.834   1.575
 2618SOL     OW 7864   4.337   1.365   0.726
 2618SOL    HW1 7865   4.288   1.278   0.735
 2618SOL    HW2 7866   4.314   1.408   0.639
 2619SOL     OW 7867   4.533   0.004   0.502
 2619SOL    HW1 7868   4.573   0.095   0.493
 2619SOL    HW2 7869   4.433   0.012   0.508
 2620SOL     OW 7870   3.921   0.976   1.264
 2620SOL    HW1 7871   4.010   0.931   1.250
 2620SOL    HW2 7872   3.848   0.911   1.245
 2621SOL     OW 7873   4.041   0.251   1.801
 2621SOL    HW1 7874   4.112   0.322   1.807
 2621SOL    HW2 7875   3.953   0.290   1.829
 2622SOL     OW 7876   4.322   0.729   0.270
 2622SOL    HW1 7877   4.346   0.798   0.202
 2622SOL    HW2 7878   4.244   0.762   0.324
 2623SOL     OW 7879   4.531   0.605   1.465
 2623SOL    HW1 7880   4.484   0.602   1.554
 2623SOL    HW2 7881   4.480   0.550   1.399
 2624SOL     OW 7882   3.800   0.811   0.789
 2624SOL    HW1 7883   3.899   0.799   0.798
 2624SOL    HW2 7884   3.776   0.906   0.810
 2625SOL     OW 7885   3.854   1.821   1.571
 2625SOL    HW1 7886   3.844   1.806   1.670
 2625SOL    HW2 7887   3.768   1.857   1.535
 2626SOL     OW 7888   4.274   0.196   0.885
 2626SOL    HW1 7889   4.269   0.191   0.985
 2626SOL    HW2 7890   4.276   0.292   0.856
 2627SOL     OW 7891   4.075   1.801   0.853
 2627SOL    HW1 7892   4.125   1.715   0.859
 2627SOL    HW2 7893   4.140   1.878   0.850
 2628SOL     OW 7894   4.045   0.943   0.242
 2628SOL    HW1 7895   4.127   0.982   0.200
 2628SOL    HW2 7896   4.018   0.861   0.193
 2629SOL     OW 7897   4.185   1.266   1.727
 2629SOL    HW1 7898   4.135   1.267   1.641
 2629SOL    HW2 7899   4.122   1.248   1.803
 2630SOL     OW 7900   3.926   0.285   1.498
 2630SOL    HW1 7901   3.846   0.345   1.485
 2630SOL    HW2 7902   3.916   0.236   1.584
 2631SOL     OW 7903   4.188   1.743   0.323
 2631SOL    HW1 7904   4.221   1.782   0.409
 2631SOL    HW2 7905   4.264   1.736   0.258
 2632SOL     OW 7906   3.973   1.785   1.241
 2632SOL    HW1 7907   4.030   1.720   1.291
 2632SOL    HW2 7908   3.957   1.752   1.148
 2633SOL     OW 7909   4.106   0.700   0.480
 2633SOL    HW1 7910   4.151   0.610   0.477
 2633SOL    HW2 7911   4.012   0.689   0.513
 2634SOL     OW 7912   4.338   0.122   0.117
 2634SOL    HW1 7913   4.436   0.100   0.124
 2634SOL    HW2 7914   4.307   0.105   0.024
 2635SOL     OW 7915   4.505   0.264   1.749
 2635SOL    HW1 7916   4.572   0.203   1.792
 2635SOL    HW2 7917   4.432   0.283   1.814
 2636SOL     OW 7918   4.527   1.402   0.924
 2636SOL    HW1 7919   4.617   1.416   0.882
 2636SOL    HW2 7920   4.456   1.404   0.853
 2637SOL     OW 7921   4.646   0.503   0.899
 2637SOL    HW1 7922   4.621   0.494   0.803
 2637SOL    HW2 7923   4.694   0.421   0.930
 2638SOL     OW 7924   4.263   0.064   0.512
 2638SOL    HW1 7925   4.182   0.065   0.570
 2638SOL    HW2 7926   4.266   0.147   0.457
 2639SOL     OW 7927   4.021   0.035   0.171
 2639SOL    HW1 7928   4.070   0.119   0.150
 2639SOL    HW2 7929   4.083  -0.030   0.216
 2640SOL     OW 7930   4.183   1.152   0.741
 2640SOL    HW1 7931   4.112   1.125   0.806
 2640SOL    HW2 7932   4.157   1.124   0.648
 2641SOL     OW 7933   3.802   0.556   1.386
 2641SOL    HW1 7934   3.894   0.555   1.345
 2641SOL    HW2 7935   3.796   0.630   1.453
 2642SOL     OW 7936   4.285   0.222   1.147
 2642SOL    HW1 7937   4.323   0.138   1.184
 2642SOL    HW2 7938   4.197   0.241   1.191
 2643SOL     OW 7939   4.212   1.385   0.174
 2643SOL    HW1 7940   4.125   1.370   0.221
 2643SOL    HW2 7941   4.195   1.411   0.079
 2644SOL     OW 7942   4.251   0.256   0.328
 2644SOL    HW1 7943   4.278   0.197   0.253
 2644SOL    HW2 7944   4.251   0.351   0.297
 2645SOL     OW 7945   4.639   0.089   1.402
 2645SOL    HW1 7946   4.664   0.069   1.307
 2645SOL    HW2 7947   4.711   0.145   1.444
 2646SOL     OW 7948   4.134   0.813   1.251
 2646SOL    HW1 7949   4.220   0.825   1.301
 2646SOL    HW2 7950   4.092   0.726   1.278
 2647SOL     OW 7951   3.788   1.564   1.331
 2647SOL    HW1 7952   3.742   1.646   1.297
 2647SOL    HW2 7953   3.886   1.583   1.340
 2648SOL     OW 7954   4.091   1.100   0.501
 2648SOL    HW1 7955   4.084   1.183   0.445
 2648SOL    HW2 7956   4.095   1.020   0.441
 2649SOL     OW 7957   4.290   0.537   0.865
 2649SOL    HW1 7958   4.302   0.603   0.791
 2649SOL    HW2 7959   4.336   0.571   0.948
 2650SOL     OW 7960   4.078   1.510   1.329
 2650SOL    HW1 7961   4.057   1.466   1.242
 2650SOL    HW2 7962   4.175   1.536   1.332
 2651SOL     OW 7963   4.126   0.751   1.598
 2651SOL    HW1 7964   4.194   0.806   1.551
 2651SOL    HW2 7965   4.166   0.663   1.625
 2652SOL     OW 7966   4.228   0.050   1.740
 2652SOL    HW1 7967   4.186  -0.007   1.670
 2652SOL    HW2 7968   4.162   0.119   1.772
 2653SOL     OW 7969   4.297   0.870   1.029
 2653SOL    HW1 7970   4.341   0.959   1.020
 2653SOL    HW2 7971   4.234   0.870   1.106
 2654SOL     OW 7972   4.031   0.213   1.231
 2654SOL    HW1 7973   4.008   0.250   1.321
 2654SOL    HW2 7974   4.001   0.118   1.225
 2655SOL     OW 7975   3.761   1.310   1.282
 2655SOL    HW1 7976   3.814   1.261   1.350
 2655SOL    HW2 7977   3.783   1.408   1.287
 2656SOL     OW 7978   4.456   0.634   1.064
 2656SOL    HW1 7979   4.515   0.608   0.988
 2656SOL    HW2 7980   4.428   0.730   1.053
 2657SOL     OW 7981   4.031   0.063   0.618
 2657SOL    HW1 7982   4.020   0.157   0.651
 2657SOL    HW2 7983   4.026   0.000   0.695
 2658SOL     OW 7984   4.747   0.766   0.966
 2658SOL    HW1 7985   4.762   0.787   1.062
 2658SOL    HW2 7986   4.717   0.671   0.957
 2659SOL     OW 7987   4.704   1.573   1.700
 2659SOL    HW1 7988   4.684   1.617   1.612
 2659SOL    HW2 7989   4.743   1.482   1.684
 2660SOL     OW 7990   4.074   0.898   1.804
 2660SOL    HW1 7991   4.150   0.942   1.852
 2660SOL    HW2 7992   4.109   0.851   1.722
 2661SOL     OW 7993   4.043   0.810   0.949
 2661SOL    HW1 7994   4.136   0.846   0.954
 2661SOL    HW2 7995   4.037   0.725   1.001
 2662SOL     OW 7996   4.063   0.509   1.006
 2662SOL    HW1 7997   4.011   0.426   0.989
 2662SOL    HW2 7998   4.140   0.514   0.942
 2663SOL     OW 7999   3.732   1.326   0.200
 2663SOL    HW1 8000   3.639   1.347   0.169
 2663SOL    HW2 8001   3.742   1.227   0.213
 2664SOL     OW 8002   3.812   1.801   0.927
 2664SOL    HW1 8003   3.770   1.715   0.900
 2664SOL    HW2 8004   3.906   1.804   0.893
 2665SOL     OW 8005   4.228   1.568   0.910
 2665SOL    HW1 8006   4.294   1.642   0.919
 2665SOL    HW2 8007   4.272   1.489   0.868
 2666SOL     OW 8008   3.764   0.544   1.114
 2666SOL    HW1 8009   3.849   0.511   1.073
 2666SOL    HW2 8010   3.777   0.559   1.212
 2667SOL     OW 8011   3.913   0.520   1.722
 2667SOL    HW1 8012   3.972   0.480   1.652
 2667SOL    HW2 8013   3.855   0.591   1.681
 2668SOL     OW 8014   4.539   0.572   0.325
 2668SOL    HW1 8015   4.546   0.483   0.279
 2668SOL    HW2 8016   4.445   0.606   0.317
 2669SOL     OW 8017   3.976   1.564   1.744
 2669SOL    HW1 8018   3.946   1.621   1.820
 2669SOL    HW2 8019   3.969   1.467   1.770
 2670SOL     OW 8020   4.395   0.464   1.269
 2670SOL    HW1 8021   4.361   0.375   1.239
 2670SOL    HW2 8022   4.421   0.518   1.189
 2671SOL     OW 8023   4.197   0.500   0.191
 2671SOL    HW1 8024   4.258   0.580   0.195
 2671SOL    HW2 8025   4.102   0.531   0.198
 2672SOL     OW 8026   3.883   1.137   1.466
 2672SOL    HW1 8027   3.905   1.076   1.542
 2672SOL    HW2 8028   3.893   1.088   1.380
 2673SOL     OW 8029   3.807   1.258   1.022
 2673SOL    HW1 8030   3.802   1.257   1.122
 2673SOL    HW2 8031   3.724   1.217   0.984
 2674SOL     OW 8032   4.412   1.662   1.716
 2674SOL    HW1 8033   4.356   1.743   1.725
 2674SOL    HW2 8034   4.464   1.666   1.630
 2675SOL     OW 8035   4.627   0.086   0.133
 2675SOL    HW1 8036   4.678   0.087   0.047
 2675SOL    HW2 8037   4.683   0.044   0.204
 2676SOL     OW 8038   3.854   1.794   1.851
 2676SOL    HW1 8039   3.813   1.720   1.904
 2676SOL    HW2 8040   3.918   1.845   1.909
 2677SOL     OW 8041   4.554   1.273   1.422
 2677SOL    HW1 8042   4.549   1.306   1.517
 2677SOL    HW2 8043   4.468   1.292   1.376
 2678SOL     OW 8044   4.396   1.616   0.154
 2678SOL    HW1 8045   4.405   1.626   0.055
 2678SOL    HW2 8046   4.356   1.527   0.175
 2679SOL     OW 8047   3.987   0.326   0.720
 2679SOL    HW1 8048   3.908   0.377   0.686
 2679SOL    HW2 8049   3.978   0.311   0.818
 2680SOL     OW 8050   4.918   1.612   0.031
 2680SOL    HW1 8051   4.924   1.519   0.068
 2680SOL    HW2 8052   4.859   1.612  -0.049
 2681SOL     OW 8053   4.546   1.002   1.372
 2681SOL    HW1 8054   4.586   1.001   1.280
 2681SOL    HW2 8055   4.556   1.094   1.412
 2682SOL     OW 8056   4.096   1.288   1.490
 2682SOL    HW1 8057   4.083   1.381   1.456
 2682SOL    HW2 8058   4.012   1.236   1.477
 2683SOL     OW 8059   4.314   1.487   0.491
 2683SOL    HW1 8060   4.356   1.429   0.421
 2683SOL    HW2 8061   4.270   1.566   0.447
 2684SOL     OW 8062   3.979   1.348   0.290
 2684SOL    HW1 8063   3.883   1.349   0.263
 2684SOL    HW2 8064   3.991   1.401   0.374
 2685SOL     OW 8065   3.829   1.013   1.726
 2685SOL    HW1 8066   3.752   0.980   1.780
 2685SOL    HW2 8067   3.914   0.983   1.768
 2686SOL     OW 8068   4.396   0.203   1.489
 2686SOL    HW1 8069   4.486   0.187   1.449
 2686SOL    HW2 8070   4.404   0.208   1.588
 2687SOL     OW 8071   3.796   0.166   0.318
 2687SOL    HW1 8072   3.779   0.249   0.264
 2687SOL    HW2 8073   3.886   0.129   0.296
 2688SOL     OW 8074   4.337   0.842   1.431
 2688SOL    HW1 8075   4.393   0.923   1.414
 2688SOL    HW2 8076   4.396   0.762   1.434
 2689SOL     OW 8077   4.440   0.565   1.708
 2689SOL    HW1 8078   4.459   0.630   1.782
 2689SOL    HW2 8079   4.500   0.485   1.717
 2690SOL     OW 8080   4.114   1.741   1.560
 2690SOL    HW1 8081   4.023   1.782   1.558
 2690SOL    HW2 8082   4.107   1.647   1.592
 2691SOL     OW 8083   4.318   0.745   0.652
 2691SOL    HW1 8084   4.368   0.830   0.633
 2691SOL    HW2 8085   4.230   0.747   0.604
 2692SOL     OW 8086   4.385   1.790   0.953
 2692SOL    HW1 8087   4.339   1.878   0.940
 2692SOL    HW2 8088   4.484   1.802   0.946
 2693SOL     OW 8089   3.945   1.314   1.844
 2693SOL    HW1 8090   3.880   1.241   1.823
 2693SOL    HW2 8091   3.949   1.328   1.942
 2694SOL     OW 8092   3.803   1.240   0.653
 2694SOL    HW1 8093   3.802   1.193   0.741
 2694SOL    HW2 8094   3.885   1.212   0.602
 2695SOL     OW 8095   4.396   1.391   1.624
 2695SOL    HW1 8096   4.318   1.341   1.662
 2695SOL    HW2 8097   4.393   1.486   1.655
 2696SOL     OW 8098   4.152   0.424   0.520
 2696SOL    HW1 8099   4.182   0.352   0.458
 2696SOL    HW2 8100   4.113   0.384   0.603
 2697SOL     OW 8101   4.041   0.547   1.280
 2697SOL    HW1 8102   4.079   0.488   1.352
 2697SOL    HW2 8103   4.081   0.521   1.192
 2698SOL     OW 8104   4.536   1.586   0.687
 2698SOL    HW1 8105   4.568   1.596   0.593
 2698SOL    HW2 8106   4.457   1.524   0.689
 2699SOL     OW 8107   4.725   0.034   1.154
 2699SOL    HW1 8108   4.662  -0.038   1.123
 2699SOL    HW2 8109   4.818  -0.002   1.154
 2700SOL     OW 8110   4.342   1.567   1.284
 2700SOL    HW1 8111   4.337   1.649   1.341
 2700SOL    HW2 8112   4.431   1.564   1.239
 2701SOL     OW 8113   3.763   1.077   0.300
 2701SOL    HW1 8114   3.862   1.066   0.291
 2701SOL    HW2 8115   3.723   0.991   0.332
 2702SOL     OW 8116   3.954   0.628   1.975
 2702SOL    HW1 8117   3.861   0.626   2.012
 2702SOL    HW2 8118   3.955   0.589   1.883
 2703SOL     OW 8119   3.949   0.275   2.858
 2703SOL    HW1 8120   3.984   0.258   2.950
 2703SOL    HW2 8121   3.861   0.230   2.846
 2704SOL     OW 8122   3.743   0.368   2.509
 2704SOL    HW1 8123   3.661   0.411   2.548
 2704SOL    HW2 8124   3.715   0.295   2.446
 2705SOL     OW 8125   4.293   1.275   3.027
 2705SOL    HW1 8126   4.200   1.268   2.990
 2705SOL    HW2 8127   4.304   1.364   3.071
 2706SOL     OW 8128   4.574   0.798   3.685
 2706SOL    HW1 8129   4.570   0.874   3.750
 2706SOL    HW2 8130   4.596   0.834   3.594
 2707SOL     OW 8131   4.409   1.012   2.527
 2707SOL    HW1 8132   4.478   0.996   2.597
 2707SOL    HW2 8133   4.336   1.069   2.565
 2708SOL     OW 8134   4.410   1.161   3.665
 2708SOL    HW1 8135   4.470   1.240   3.679
 2708SOL    HW2 8136   4.324   1.192   3.624
 2709SOL     OW 8137   4.059   1.435   2.923
 2709SOL    HW1 8138   3.981   1.404   2.870
 2709SOL    HW2 8139   4.117   1.493   2.866
 2710SOL     OW 8140   4.162   0.392   3.361
 2710SOL    HW1 8141   4.244   0.336   3.370
 2710SOL    HW2 8142   4.081   0.334   3.365
 2711SOL     OW 8143   3.955   1.713   2.345
 2711SOL    HW1 8144   3.989   1.790   2.399
 2711SOL    HW2 8145   3.999   1.713   2.255
 2712SOL     OW 8146   3.954   1.434   2.400
 2712SOL    HW1 8147   3.928   1.530   2.400
 2712SOL    HW2 8148   3.883   1.380   2.445
 2713SOL     OW 8149   3.964   1.091   2.748
 2713SOL    HW1 8150   3.978   1.007   2.800
 2713SOL    HW2 8151   3.909   1.155   2.803
 2714SOL     OW 8152   4.344   1.786   3.301
 2714SOL    HW1 8153   4.252   1.769   3.336
 2714SOL    HW2 8154   4.372   1.878   3.327
 2715SOL     OW 8155   4.330   0.964   1.985
 2715SOL    HW1 8156   4.337   1.048   1.931
 2715SOL    HW2 8157   4.376   0.977   2.073
 2716SOL     OW 8158   3.846   0.643   2.425
 2716SOL    HW1 8159   3.801   0.555   2.442
 2716SOL    HW2 8160   3.845   0.697   2.509
 2717SOL     OW 8161   3.751   1.596   1.979
 2717SOL    HW1 8162   3.732   1.500   2.000
 2717SOL    HW2 8163   3.718   1.654   2.054
 2718SOL     OW 8164   3.837   0.737   3.459
 2718SOL    HW1 8165   3.925   0.724   3.504
 2718SOL    HW2 8166   3.824   0.834   3.437
 2719SOL     OW 8167   4.337   1.365   2.588
 2719SOL    HW1 8168   4.288   1.278   2.597
 2719SOL    HW2 8169   4.314   1.408   2.501
 2720SOL     OW 8170   4.533   0.004   2.364
 2720SOL    HW1 8171   4.573   0.095   2.355
 2720SOL    HW2 8172   4.433   0.012   2.370
 2721SOL     OW 8173   3.921   0.976   3.126
 2721SOL    HW1 8174   4.010   0.931   3.112
 2721SOL    HW2 8175   3.848   0.911   3.107
 2722SOL     OW 8176   4.041   0.251   3.663
 2722SOL    HW1 8177   4.112   0.322   3.669
 2722SOL    HW2 8178   3.953   0.290   3.691
 2723SOL     OW 8179   4.322   0.729   2.132
 2723SOL    HW1 8180   4.346   0.798   2.064
 2723SOL    HW2 8181   4.244   0.762   2.186
 2724SOL     OW 8182   4.531   0.605   3.327
 2724SOL    HW1 8183   4.484   0.602   3.416
 2724SOL    HW2 8184   4.480   0.550   3.261
 2725SOL     OW 8185   3.800   0.811   2.651
 2725SOL    HW1 8186   3.899   0.799   2.660
 2725SOL    HW2 8187   3.776   0.906   2.672
 2726SOL     OW 8188   3.854   1.821   3.433
 2726SOL    HW1 8189   3.844   1.806   3.532
 2726SOL    HW2 8190   3.768   1.857   3.397
 2727SOL     OW 8191   4.274   0.196   2.747
 2727SOL    HW1 8192   4.269   0.191   2.847
 2727SOL    HW2 8193   4.276   0.292   2.718
 2728SOL     OW 8194   4.075   1.801   2.715
 2728SOL    HW1 8195   4.125   1.715   2.721
 2728SOL    HW2 8196   4.140   1.878   2.712
 2729SOL     OW 8197   4.045   0.943   2.104
 2729SOL    HW1 8198   4.127   0.982   2.062
 2729SOL    HW2 8199   4.018   0.861   2.055
 2730SOL     OW 8200   4.185   1.266   3.589
 2730SOL    HW1 8201   4.135   1.267   3.503
 2730SOL    HW2 8202   4.122   1.248   3.665
 2731SOL     OW 8203   3.926   0.285   3.360
 2731SOL    HW1 8204   3.846   0.345   3.347
 2731SOL    HW2 8205   3.916   0.236   3.446
 2732SOL     OW 8206   4.188   1.743   2.185
 2732SOL    HW1 8207   4.221   1.782   2.271
 2732SOL    HW2 8208   4.264   1.736   2.120
 2733SOL     OW 8209   3.973   1.785   3.103
 2733SOL    HW1 8210   4.030   1.720   3.153
 2733SOL    HW2 8211   3.957   1.752   3.010
 2734SOL     OW 8212   4.106   0.700   2.342
 2734SOL    HW1 8213   4.151   0.610   2.339
 2734SOL    HW2 8214   4.012   0.689   2.375
 2735SOL     OW 8215   4.338   0.122   1.979
 2735SOL    HW1 8216   4.436   0.100   1.986
 2735SOL    HW2 8217   4.307   0.105   1.886
 2736SOL     OW 8218   4.505   0.264   3.611
 2736SOL    HW1 8219   4.572   0.203   3.654
 2736SOL    HW2 8220   4.432   0.283   3.676
 2737SOL     OW 8221   4.527   1.402   2.786
 2737SOL    HW1 8222   4.617   1.416   2.744
 2737SOL    HW2 8223   4.456   1.404   2.715
 2738SOL     OW 8224   4.646   0.503   2.761
 2738SOL    HW1 8225   4.621   0.494   2.665
 2738SOL    HW2 8226   4.694   0.421   2.792
 2739SOL     OW 8227   4.263   0.064   2.374
 2739SOL    HW1 8228   4.182   0.065   2.432
 2739SOL    HW2 8229   4.266   0.147   2.319
 2740SOL     OW 8230   4.021   0.035   2.033
 2740SOL    HW1 8231   4.070   0.119   2.012
 2740SOL    HW2 8232   4.083  -0.030   2.078
 2741SOL     OW 8233   4.183   1.152   2.603
 2741SOL    HW1 8234   4.112   1.125   2.668
 2741SOL    HW2 8235   4.157   1.124   2.510
 2742SOL     OW 8236   3.802   0.556   3.248
 2742SOL    HW1 8237   3.894   0.555   3.207
 2742SOL    HW2 8238   3.796   0.630   3.315
 2743SOL     OW 8239   4.285   0.222   3.009
 2743SOL    HW1 8240   4.323   0.138   3.046
 2743SOL    HW2 8241   4.197   0.241   3.053
 2744SOL     OW 8242   4.212   1.385   2.036
 2744SOL    HW1 8243   4.125   1.370   2.083
 2744SOL    HW2 8244   4.195   1.411   1.941
 2745SOL     OW 8245   4.251   0.256   2.190
 2745SOL    HW1 8246   4.278   0.197   2.115
 2745SOL    HW2 8247   4.251   0.351   2.159
 2746SOL     OW 8248   4.639   0.089   3.264
 2746SOL    HW1 8249   4.664   0.069   3.169
 2746SOL    HW2 8250   4.711   0.145   3.306
 2747SOL     OW 8251   4.134   0.813   3.113
 2747SOL    HW1 8252   4.220   0.825   3.163
 2747SOL    HW2 8253   4.092   0.726   3.140
 2748SOL     OW 8254   3.788   1.564   3.193
 2748SOL    HW1 8255   3.742   1.646   3.159
 2748SOL    HW2 8256   3.886   1.583   3.202
 2749SOL     OW 8257   4.091   1.100   2.363
 2749SOL    HW1 8258   4.084   1.183   2.307
 2749SOL    HW2 8259   4.095   1.020   2.303
 2750SOL     OW 8260   4.290   0.537   2.727
 2750SOL    HW1 8261   4.302   0.603   2.653
 2750SOL    HW2 8262   4.336   0.571   2.810
 2751SOL     OW 8263   4.078   1.510   3.191
 2751SOL    HW1 8264   4.057   1.466   3.104
 2751SOL    HW2 8265   4.175   1.536   3.194
 2752SOL     OW 8266   4.126   0.751   3.460
 2752SOL    HW1 8267   4.194   0.806   3.413
 2752SOL    HW2 8268   4.166   0.663   3.487
 2753SOL     OW 8269   4.228   0.050   3.602
 2753SOL    HW1 8270   4.186  -0.007   3.532
 2753SOL    HW2 8271   4.162   0.119   3.634
 2754SOL     OW 8272   4.297   0.870   2.891
 2754SOL    HW1 8273   4.341   0.959   2.882
 2754SOL    HW2 8274   4.234   0.870   2.968
 2755SOL     OW 8275   4.031   0.213   3.093
 2755SOL    HW1 8276   4.008   0.250   3.183
 2755SOL    HW2 8277   4.001   0.118   3.087
 2756SOL     OW 8278   3.761   1.310   3.144
 2756SOL    HW1 8279   3.814   1.261   3.212
 2756SOL    HW2 8280   3.783   1.408   3.149
 2757SOL     OW 8281   4.456   0.634   2.926
 2757SOL    HW1 8282   4.515   0.608   2.850
 2757SOL    HW2 8283   4.428   0.730   2.915
 2758SOL     OW 8284   4.031   0.063   2.480
 2758SOL    HW1 8285   4.020   0.157   2.513
 2758SOL    HW2 8286   4.026   0.000   2.557
 2759SOL     OW 8287   4.747   0.766   2.828
 2759SOL    HW1 8288   4.762   0.787   2.924
 2759SOL    HW2 8289   4.717   0.671   2.819
 2760SOL     OW 8290   4.704   1.573   3.562
 2760SOL    HW1 8291   4.684   1.617   3.474
 2760SOL    HW2 8292   4.743   1.482   3.546
 2761SOL     OW 8293   4.074   0.898   3.666
 2761SOL    HW1 8294   4.150   0.942   3.714
 2761SOL    HW2 8295   4.109   0.851   3.584
 2762SOL     OW 8296   4.043   0.810   2.811
 2762SOL    HW1 8297   4.136   0.846   2.816
 2762SOL    HW2 8298   4.037   0.725   2.863
 2763SOL     OW 8299   4.063   0.509   2.868
 2763SOL    HW1 8300   4.011   0.426   2.851
 2763SOL    HW2 8301   4.140   0.514   2.804
 2764SOL     OW 8302   3.732   1.326   2.062
 2764SOL    HW1 8303   3.639   1.347   2.031
 2764SOL    HW2 8304   3.742   1.227   2.075
 2765SOL     OW 8305   3.812   1.801   2.789
 2765SOL    HW1 8306   3.770   1.715   2.762
 2765SOL    HW2 8307   3.906   1.804   2.755
 2766SOL     OW 8308   4.228   1.568   2.772
 2766SOL    HW1 8309   4.294   1.642   2.781
 2766SOL    HW2 8310   4.272   1.489   2.730
 2767SOL     OW 8311   3.764   0.544   2.976
 2767SOL    HW1 8312   3.849   0.511   2.935
 2767SOL    HW2 8313   3.777   0.559   3.074
 2768SOL     OW 8314   3.913   0.520   3.584
 2768SOL    HW1 8315   3.972   0.480   3.514
 2768SOL    HW2 8316   3.855   0.591   3.543
 2769SOL     OW 8317   4.539   0.572   2.187
 2769SOL    HW1 8318   4.546   0.483   2.141
 2769SOL    HW2 8319   4.445   0.606   2.179
 2770SOL     OW 8320   3.976   1.564   3.606
 2770SOL    HW1 8321   3.946   1.621   3.682
 2770SOL    HW2 8322   3.969   1.467   3.632
 2771SOL     OW 8323   4.395   0.464   3.131
 2771SOL    HW1 8324   4.361   0.375   3.101
 2771SOL    HW2 8325   4.421   0.518   3.051
 2772SOL     OW 8326   4.197   0.500   2.053
 2772SOL    HW1 8327   4.258   0.580   2.057
 2772SOL    HW2 8328   4.102   0.531   2.060
 2773SOL     OW 8329   3.883   1.137   3.328
 2773SOL    HW1 8330   3.905   1.076   3.404
 2773SOL    HW2 8331   3.893   1.088   3.242
 2774SOL     OW 8332   3.807   1.258   2.884
 2774SOL    HW1 8333   3.802   1.257   2.984
 2774SOL    HW2 8334   3.724   1.217   2.846
 2775SOL     OW 8335   4.412   1.662   3.578
 2775SOL    HW1 8336   4.356   1.743   3.587
 2775SOL    HW2 8337   4.464   1.666   3.492
 2776SOL     OW 8338   3.854   1.794   3.713
 2776SOL    HW1 8339   3.813   1.720   3.766
 2776SOL    HW2 8340   3.918   1.845   3.771
 2777SOL     OW 8341   4.554   1.273   3.284
 2777SOL    HW1 8342   4.549   1.306   3.379
 2777SOL    HW2 8343   4.468   1.292   3.238
 2778SOL     OW 8344   4.396   1.616   2.016
 2778SOL    HW1 8345   4.405   1.626   1.917
 2778SOL    HW2 8346   4.356   1.527   2.037
 2779SOL     OW 8347   3.987   0.326   2.582
 2779SOL    HW1 8348   3.908   0.377   2.548
 2779SOL    HW2 8349   3.978   0.311   2.680
 2780SOL     OW 8350   4.546   1.002   3.234
 2780SOL    HW1 8351   4.586   1.001   3.142
 2780SOL    HW2 8352   4.556   1.094   3.274
 2781SOL     OW 8353   4.096   1.288   3.352
 2781SOL    HW1 8354   4.083   1.381   3.318
 2781SOL    HW2 8355   4.012   1.236   3.339
 2782SOL     OW 8356   4.314   1.487   2.353
 2782SOL    HW1 8357   4.356   1.429   2.283
 2782SOL    HW2 8358   4.270   1.566   2.309
 2783SOL     OW 8359   3.979   1.348   2.152
 2783SOL    HW1 8360   3.883   1.349   2.125
 2783SOL    HW2 8361   3.991   1.401   2.236
 2784SOL     OW 8362   3.829   1.013   3.588
 2784SOL    HW1 8363   3.752   0.980   3.642
 2784SOL    HW2 8364   3.914   0.983   3.630
 2785SOL     OW 8365   4.396   0.203   3.351
 2785SOL    HW1 8366   4.486   0.187   3.311
 2785SOL    HW2 8367   4.404   0.208   3.450
 2786SOL     OW 8368   3.799   0.345   1.895
 2786SOL    HW1 8369   3.707   0.317   1.866
 2786SOL    HW2 8370   3.830   0.422   1.839
 2787SOL     OW 8371   3.796   0.166   2.180
 2787SOL    HW1 8372   3.779   0.249   2.126
 2787SOL    HW2 8373   3.886   0.129   2.158
 2788SOL     OW 8374   4.337   0.842   3.293
 2788SOL    HW1 8375   4.393   0.923   3.276
 2788SOL    HW2 8376   4.396   0.762   3.296
 2789SOL     OW 8377   4.440   0.565   3.570
 2789SOL    HW1 8378   4.459   0.630   3.644
 2789SOL    HW2 8379   4.500   0.485   3.579
 2790SOL     OW 8380   4.114   1.741   3.422
 2790SOL    HW1 8381   4.023   1.782   3.420
 2790SOL    HW2 8382   4.107   1.647   3.454
 2791SOL     OW 8383   4.318   0.745   2.514
 2791SOL    HW1 8384   4.368   0.830   2.495
 2791SOL    HW2 8385   4.230   0.747   2.466
 2792SOL     OW 8386   4.385   1.790   2.815
 2792SOL    HW1 8387   4.339   1.878   2.802
 2792SOL    HW2 8388   4.484   1.802   2.808
 2793SOL     OW 8389   3.945   1.314   3.706
 2793SOL    HW1 8390   3.880   1.241   3.685
 2793SOL    HW2 8391   3.949   1.328   3.804
 2794SOL     OW 8392   3.803   1.240   2.515
 2794SOL    HW1 8393   3.802   1.193   2.603
 2794SOL    HW2 8394   3.885   1.212   2.464
 2795SOL     OW 8395   4.396   1.391   3.486
 2795SOL    HW1 8396   4.318   1.341   3.524
 2795SOL    HW2 8397   4.393   1.486   3.517
 2796SOL     OW 8398   4.152   0.424   2.382
 2796SOL    HW1 8399   4.182   0.352   2.320
 2796SOL    HW2 8400   4.113   0.384   2.465
 2797SOL     OW 8401   4.041   0.547   3.142
 2797SOL    HW1 8402   4.079   0.488   3.214
 2797SOL    HW2 8403   4.081   0.521   3.054
 2798SOL     OW 8404   4.536   1.586   2.549
 2798SOL    HW1 8405   4.568   1.596   2.455
 2798SOL    HW2 8406   4.457   1.524   2.551
 2799SOL     OW 8407   4.725   0.034   3.016
 2799SOL    HW1 8408   4.662  -0.038   2.985
 2799SOL    HW2 8409   4.818  -0.002   3.016
 2800SOL     OW 8410   4.342   1.567   3.146
 2800SOL    HW1 8411   4.337   1.649   3.203
 2800SOL    HW2 8412   4.431   1.564   3.101
 2801SOL     OW 8413   3.763   1.077   2.162
 2801SOL    HW1 8414   3.862   1.066   2.153
 2801SOL    HW2 8415   3.723   0.991   2.194
 2802SOL     OW 8416   3.954   0.628   3.837
 2802SOL    HW1 8417   3.861   0.626   3.874
 2802SOL    HW2 8418   3.955   0.589   3.745
 2803SOL     OW 8419   3.949   0.275   4.720
 2803SOL    HW1 8420   3.984   0.258   4.812
 2803SOL    HW2 8421   3.861   0.230   4.708
 2804SOL     OW 8422   3.743   0.368   4.371
 2804SOL    HW1 8423   3.661   0.411   4.410
 2804SOL    HW2 8424   3.715   0.295   4.308
 2805SOL     OW 8425   4.492   1.144   4.747
 2805SOL    HW1 8426   4.414   1.161   4.807
 2805SOL    HW2 8427   4.526   1.231   4.711
 2806SOL     OW 8428   4.409   1.012   4.389
 2806SOL    HW1 8429   4.478   0.996   4.459
 2806SOL    HW2 8430   4.336   1.069   4.427
 2807SOL     OW 8431   3.955   1.713   4.207
 2807SOL    HW1 8432   3.989   1.790   4.261
 2807SOL    HW2 8433   3.999   1.713   4.117
 2808SOL     OW 8434   3.954   1.434   4.262
 2808SOL    HW1 8435   3.928   1.530   4.262
 2808SOL    HW2 8436   3.883   1.380   4.307
 2809SOL     OW 8437   3.964   1.091   4.610
 2809SOL    HW1 8438   3.978   1.007   4.662
 2809SOL    HW2 8439   3.909   1.155   4.665
 2810SOL     OW 8440   4.330   0.964   3.847
 2810SOL    HW1 8441   4.337   1.048   3.793
 2810SOL    HW2 8442   4.376   0.977   3.935
 2811SOL     OW 8443   3.846   0.643   4.287
 2811SOL    HW1 8444   3.801   0.555   4.304
 2811SOL    HW2 8445   3.845   0.697   4.371
 2812SOL     OW 8446   3.751   1.596   3.841
 2812SOL    HW1 8447   3.732   1.500   3.862
 2812SOL    HW2 8448   3.718   1.654   3.916
 2813SOL     OW 8449   4.337   1.365   4.450
 2813SOL    HW1 8450   4.288   1.278   4.459
 2813SOL    HW2 8451   4.314   1.408   4.363
 2814SOL     OW 8452   4.533   0.004   4.226
 2814SOL    HW1 8453   4.573   0.095   4.217
 2814SOL    HW2 8454   4.433   0.012   4.232
 2815SOL     OW 8455   4.322   0.729   3.994
 2815SOL    HW1 8456   4.346   0.798   3.926
 2815SOL    HW2 8457   4.244   0.762   4.048
 2816SOL     OW 8458   3.800   0.811   4.513
 2816SOL    HW1 8459   3.899   0.799   4.522
 2816SOL    HW2 8460   3.776   0.906   4.534
 2817SOL     OW 8461   4.075   1.801   4.577
 2817SOL    HW1 8462   4.125   1.715   4.583
 2817SOL    HW2 8463   4.140   1.878   4.574
 2818SOL     OW 8464   4.045   0.943   3.966
 2818SOL    HW1 8465   4.127   0.982   3.924
 2818SOL    HW2 8466   4.018   0.861   3.917
 2819SOL     OW 8467   4.188   1.743   4.047
 2819SOL    HW1 8468   4.221   1.782   4.133
 2819SOL    HW2 8469   4.264   1.736   3.982
 2820SOL     OW 8470   4.106   0.700   4.204
 2820SOL    HW1 8471   4.151   0.610   4.201
 2820SOL    HW2 8472   4.012   0.689   4.237
 2821SOL     OW 8473   4.338   0.122   3.841
 2821SOL    HW1 8474   4.436   0.100   3.848
 2821SOL    HW2 8475   4.307   0.105   3.748
 2822SOL     OW 8476   4.527   1.402   4.648
 2822SOL    HW1 8477   4.617   1.416   4.606
 2822SOL    HW2 8478   4.456   1.404   4.577
 2823SOL     OW 8479   4.263   0.064   4.236
 2823SOL    HW1 8480   4.182   0.065   4.294
 2823SOL    HW2 8481   4.266   0.147   4.181
 2824SOL     OW 8482   4.021   0.035   3.895
 2824SOL    HW1 8483   4.070   0.119   3.874
 2824SOL    HW2 8484   4.083  -0.030   3.940
 2825SOL     OW 8485   4.183   1.152   4.465
 2825SOL    HW1 8486   4.112   1.125   4.530
 2825SOL    HW2 8487   4.157   1.124   4.372
 2826SOL     OW 8488   4.212   1.385   3.898
 2826SOL    HW1 8489   4.125   1.370   3.945
 2826SOL    HW2 8490   4.195   1.411   3.803
 2827SOL     OW 8491   4.251   0.256   4.052
 2827SOL    HW1 8492   4.278   0.197   3.977
 2827SOL    HW2 8493   4.251   0.351   4.021
 2828SOL     OW 8494   4.091   1.100   4.225
 2828SOL    HW1 8495   4.084   1.183   4.169
 2828SOL    HW2 8496   4.095   1.020   4.165
 2829SOL     OW 8497   4.290   0.537   4.589
 2829SOL    HW1 8498   4.302   0.603   4.515
 2829SOL    HW2 8499   4.336   0.571   4.672
 2830SOL     OW 8500   4.031   0.063   4.342
 2830SOL    HW1 8501   4.020   0.157   4.375
 2830SOL    HW2 8502   4.026   0.000   4.419
 2831SOL     OW 8503   3.732   1.326   3.924
 2831SOL    HW1 8504   3.639   1.347   3.893
 2831SOL    HW2 8505   3.742   1.227   3.937
 2832SOL     OW 8506   3.812   1.801   4.651
 2832SOL    HW1 8507   3.770   1.715   4.624
 2832SOL    HW2 8508   3.906   1.804   4.617
 2833SOL     OW 8509   4.539   0.572   4.049
 2833SOL    HW1 8510   4.546   0.483   4.003
 2833SOL    HW2 8511   4.445   0.606   4.041
 2834SOL     OW 8512   4.197   0.500   3.915
 2834SOL    HW1 8513   4.258   0.580   3.919
 2834SOL    HW2 8514   4.102   0.531   3.922
 2835SOL     OW 8515   4.396   1.616   3.878
 2835SOL    HW1 8516   4.405   1.626   3.779
 2835SOL    HW2 8517   4.356   1.527   3.899
 2836SOL     OW 8518   3.987   0.326   4.444
 2836SOL    HW1 8519   3.908   0.377   4.410
 2836SOL    HW2 8520   3.978   0.311   4.542
 2837SOL     OW 8521   4.314   1.487   4.215
 2837SOL    HW1 8522   4.356   1.429   4.145
 2837SOL    HW2 8523   4.270   1.566   4.171
 2838SOL     OW 8524   3.979   1.348   4.014
 2838SOL    HW1 8525   3.883   1.349   3.987
 2838SOL    HW2 8526   3.991   1.401   4.098
 2839SOL     OW 8527   3.799   0.345   3.757
 2839SOL    HW1 8528   3.707   0.317   3.728
 2839SOL    HW2 8529   3.830   0.422   3.701
 2840SOL     OW 8530   3.796   0.166   4.042
 2840SOL    HW1 8531   3.779   0.249   3.988
 2840SOL    HW2 8532   3.886   0.129   4.020
 2841SOL     OW 8533   4.318   0.745   4.376
 2841SOL    HW1 8534   4.368   0.830   4.357
 2841SOL    HW2 8535   4.230   0.747   4.328
 2842SOL     OW 8536   4.385   1.790   4.677
 2842SOL    HW1 8537   4.339   1.878   4.664
 2842SOL    HW2 8538   4.484   1.802   4.670
 2843SOL     OW 8539   3.803   1.240   4.377
 2843SOL    HW1 8540   3.802   1.193   4.465
 2843SOL    HW2 8541   3.885   1.212   4.326
 2844SOL     OW 8542   4.152   0.424   4.244
 2844SOL    HW1 8543   4.182   0.352   4.182
 2844SOL    HW2 8544   4.113   0.384   4.327
 2845SOL     OW 8545   4.536   1.586   4.411
 2845SOL    HW1 8546   4.568   1.596   4.317
 2845SOL    HW2 8547   4.457   1.524   4.413
 2846SOL     OW 8548   3.763   1.077   4.024
 2846SOL    HW1 8549   3.862   1.066   4.015
 2846SOL    HW2 8550   3.723   0.991   4.056
 2847SOL     OW 8551   3.954   2.490   0.113
 2847SOL    HW1 8552   3.861   2.488   0.150
 2847SOL    HW2 8553   3.955   2.451   0.021
 2848SOL     OW 8554   3.949   2.137   0.996
 2848SOL    HW1 8555   3.984   2.120   1.088
 2848SOL    HW2 8556   3.861   2.092   0.984
 2849SOL     OW 8557   3.743   2.230   0.647
 2849SOL    HW1 8558   3.661   2.273   0.686
 2849SOL    HW2 8559   3.715   2.157   0.584
 2850SOL     OW 8560   4.293   3.137   1.165
 2850SOL    HW1 8561   4.200   3.130   1.128
 2850SOL    HW2 8562   4.304   3.226   1.209
 2851SOL     OW 8563   4.574   2.660   1.823
 2851SOL    HW1 8564   4.570   2.736   1.888
 2851SOL    HW2 8565   4.596   2.696   1.732
 2852SOL     OW 8566   4.409   2.874   0.665
 2852SOL    HW1 8567   4.478   2.858   0.735
 2852SOL    HW2 8568   4.336   2.931   0.703
 2853SOL     OW 8569   4.410   3.023   1.803
 2853SOL    HW1 8570   4.470   3.102   1.817
 2853SOL    HW2 8571   4.324   3.054   1.762
 2854SOL     OW 8572   4.059   3.297   1.061
 2854SOL    HW1 8573   3.981   3.266   1.008
 2854SOL    HW2 8574   4.117   3.355   1.004
 2855SOL     OW 8575   4.162   2.254   1.499
 2855SOL    HW1 8576   4.244   2.198   1.508
 2855SOL    HW2 8577   4.081   2.196   1.503
 2856SOL     OW 8578   3.955   3.575   0.483
 2856SOL    HW1 8579   3.989   3.652   0.537
 2856SOL    HW2 8580   3.999   3.575   0.393
 2857SOL     OW 8581   3.954   3.296   0.538
 2857SOL    HW1 8582   3.928   3.392   0.538
 2857SOL    HW2 8583   3.883   3.242   0.583
 2858SOL     OW 8584   3.964   2.953   0.886
 2858SOL    HW1 8585   3.978   2.869   0.938
 2858SOL    HW2 8586   3.909   3.017   0.941
 2859SOL     OW 8587   4.344   3.648   1.439
 2859SOL    HW1 8588   4.252   3.631   1.474
 2859SOL    HW2 8589   4.372   3.740   1.465
 2860SOL     OW 8590   4.330   2.826   0.123
 2860SOL    HW1 8591   4.337   2.910   0.069
 2860SOL    HW2 8592   4.376   2.839   0.211
 2861SOL     OW 8593   3.846   2.505   0.563
 2861SOL    HW1 8594   3.801   2.417   0.580
 2861SOL    HW2 8595   3.845   2.559   0.647
 2862SOL     OW 8596   3.751   3.458   0.117
 2862SOL    HW1 8597   3.732   3.362   0.138
 2862SOL    HW2 8598   3.718   3.516   0.192
 2863SOL     OW 8599   3.837   2.599   1.597
 2863SOL    HW1 8600   3.925   2.586   1.642
 2863SOL    HW2 8601   3.824   2.696   1.575
 2864SOL     OW 8602   4.337   3.227   0.726
 2864SOL    HW1 8603   4.288   3.140   0.735
 2864SOL    HW2 8604   4.314   3.270   0.639
 2865SOL     OW 8605   4.533   1.866   0.502
 2865SOL    HW1 8606   4.573   1.957   0.493
 2865SOL    HW2 8607   4.433   1.874   0.508
 2866SOL     OW 8608   3.921   2.838   1.264
 2866SOL    HW1 8609   4.010   2.793   1.250
 2866SOL    HW2 8610   3.848   2.773   1.245
 2867SOL     OW 8611   4.041   2.113   1.801
 2867SOL    HW1 8612   4.112   2.184   1.807
 2867SOL    HW2 8613   3.953   2.152   1.829
 2868SOL     OW 8614   4.322   2.591   0.270
 2868SOL    HW1 8615   4.346   2.660   0.202
 2868SOL    HW2 8616   4.244   2.624   0.324
 2869SOL     OW 8617   4.531   2.467   1.465
 2869SOL    HW1 8618   4.484   2.464   1.554
 2869SOL    HW2 8619   4.480   2.412   1.399
 2870SOL     OW 8620   3.800   2.673   0.789
 2870SOL    HW1 8621   3.899   2.661   0.798
 2870SOL    HW2 8622   3.776   2.768   0.810
 2871SOL     OW 8623   3.854   3.683   1.571
 2871SOL    HW1 8624   3.844   3.668   1.670
 2871SOL    HW2 8625   3.768   3.719   1.535
 2872SOL     OW 8626   4.274   2.058   0.885
 2872SOL    HW1 8627   4.269   2.053   0.985
 2872SOL    HW2 8628   4.276   2.154   0.856
 2873SOL     OW 8629   4.075   3.663   0.853
 2873SOL    HW1 8630   4.125   3.577   0.859
 2873SOL    HW2 8631   4.140   3.740   0.850
 2874SOL     OW 8632   4.045   2.805   0.242
 2874SOL    HW1 8633   4.127   2.844   0.200
 2874SOL    HW2 8634   4.018   2.723   0.193
 2875SOL     OW 8635   4.185   3.128   1.727
 2875SOL    HW1 8636   4.135   3.129   1.641
 2875SOL    HW2 8637   4.122   3.110   1.803
 2876SOL     OW 8638   3.926   2.147   1.498
 2876SOL    HW1 8639   3.846   2.207   1.485
 2876SOL    HW2 8640   3.916   2.098   1.584
 2877SOL     OW 8641   4.188   3.605   0.323
 2877SOL    HW1 8642   4.221   3.644   0.409
 2877SOL    HW2 8643   4.264   3.598   0.258
 2878SOL     OW 8644   3.973   3.647   1.241
 2878SOL    HW1 8645   4.030   3.582   1.291
 2878SOL    HW2 8646   3.957   3.614   1.148
 2879SOL     OW 8647   4.106   2.562   0.480
 2879SOL    HW1 8648   4.151   2.472   0.477
 2879SOL    HW2 8649   4.012   2.551   0.513
 2880SOL     OW 8650   4.505   2.126   1.749
 2880SOL    HW1 8651   4.572   2.065   1.792
 2880SOL    HW2 8652   4.432   2.145   1.814
 2881SOL     OW 8653   4.527   3.264   0.924
 2881SOL    HW1 8654   4.617   3.278   0.882
 2881SOL    HW2 8655   4.456   3.266   0.853
 2882SOL     OW 8656   4.646   2.365   0.899
 2882SOL    HW1 8657   4.621   2.356   0.803
 2882SOL    HW2 8658   4.694   2.283   0.930
 2883SOL     OW 8659   4.263   1.926   0.512
 2883SOL    HW1 8660   4.182   1.927   0.570
 2883SOL    HW2 8661   4.266   2.009   0.457
 2884SOL     OW 8662   4.021   1.897   0.171
 2884SOL    HW1 8663   4.070   1.981   0.150
 2884SOL    HW2 8664   4.083   1.832   0.216
 2885SOL     OW 8665   4.183   3.014   0.741
 2885SOL    HW1 8666   4.112   2.987   0.806
 2885SOL    HW2 8667   4.157   2.986   0.648
 2886SOL     OW 8668   3.802   2.418   1.386
 2886SOL    HW1 8669   3.894   2.417   1.345
 2886SOL    HW2 8670   3.796   2.492   1.453
 2887SOL     OW 8671   4.285   2.084   1.147
 2887SOL    HW1 8672   4.323   2.000   1.184
 2887SOL    HW2 8673   4.197   2.103   1.191
 2888SOL     OW 8674   4.212   3.247   0.174
 2888SOL    HW1 8675   4.125   3.232   0.221
 2888SOL    HW2 8676   4.195   3.273   0.079
 2889SOL     OW 8677   4.251   2.118   0.328
 2889SOL    HW1 8678   4.278   2.059   0.253
 2889SOL    HW2 8679   4.251   2.213   0.297
 2890SOL     OW 8680   4.639   1.951   1.402
 2890SOL    HW1 8681   4.664   1.931   1.307
 2890SOL    HW2 8682   4.711   2.007   1.444
 2891SOL     OW 8683   4.134   2.675   1.251
 2891SOL    HW1 8684   4.220   2.687   1.301
 2891SOL    HW2 8685   4.092   2.588   1.278
 2892SOL     OW 8686   3.788   3.426   1.331
 2892SOL    HW1 8687   3.742   3.508   1.297
 2892SOL    HW2 8688   3.886   3.445   1.340
 2893SOL     OW 8689   4.091   2.962   0.501
 2893SOL    HW1 8690   4.084   3.045   0.445
 2893SOL    HW2 8691   4.095   2.882   0.441
 2894SOL     OW 8692   4.290   2.399   0.865
 2894SOL    HW1 8693   4.302   2.465   0.791
 2894SOL    HW2 8694   4.336   2.433   0.948
 2895SOL     OW 8695   4.078   3.372   1.329
 2895SOL    HW1 8696   4.057   3.328   1.242
 2895SOL    HW2 8697   4.175   3.398   1.332
 2896SOL     OW 8698   4.126   2.613   1.598
 2896SOL    HW1 8699   4.194   2.668   1.551
 2896SOL    HW2 8700   4.166   2.525   1.625
 2897SOL     OW 8701   4.228   1.912   1.740
 2897SOL    HW1 8702   4.186   1.855   1.670
 2897SOL    HW2 8703   4.162   1.981   1.772
 2898SOL     OW 8704   4.297   2.732   1.029
 2898SOL    HW1 8705   4.341   2.821   1.020
 2898SOL    HW2 8706   4.234   2.732   1.106
 2899SOL     OW 8707   4.031   2.075   1.231
 2899SOL    HW1 8708   4.008   2.112   1.321
 2899SOL    HW2 8709   4.001   1.980   1.225
 2900SOL     OW 8710   3.761   3.172   1.282
 2900SOL    HW1 8711   3.814   3.123   1.350
 2900SOL    HW2 8712   3.783   3.270   1.287
 2901SOL     OW 8713   4.456   2.496   1.064
 2901SOL    HW1 8714   4.515   2.470   0.988
 2901SOL    HW2 8715   4.428   2.592   1.053
 2902SOL     OW 8716   4.031   1.925   0.618
 2902SOL    HW1 8717   4.020   2.019   0.651
 2902SOL    HW2 8718   4.026   1.862   0.695
 2903SOL     OW 8719   4.747   2.628   0.966
 2903SOL    HW1 8720   4.762   2.649   1.062
 2903SOL    HW2 8721   4.717   2.533   0.957
 2904SOL     OW 8722   4.704   3.435   1.700
 2904SOL    HW1 8723   4.684   3.479   1.612
 2904SOL    HW2 8724   4.743   3.344   1.684
 2905SOL     OW 8725   4.074   2.760   1.804
 2905SOL    HW1 8726   4.150   2.804   1.852
 2905SOL    HW2 8727   4.109   2.713   1.722
 2906SOL     OW 8728   4.043   2.672   0.949
 2906SOL    HW1 8729   4.136   2.708   0.954
 2906SOL    HW2 8730   4.037   2.587   1.001
 2907SOL     OW 8731   4.063   2.371   1.006
 2907SOL    HW1 8732   4.011   2.288   0.989
 2907SOL    HW2 8733   4.140   2.376   0.942
 2908SOL     OW 8734   3.732   3.188   0.200
 2908SOL    HW1 8735   3.639   3.209   0.169
 2908SOL    HW2 8736   3.742   3.089   0.213
 2909SOL     OW 8737   3.812   3.663   0.927
 2909SOL    HW1 8738   3.770   3.577   0.900
 2909SOL    HW2 8739   3.906   3.666   0.893
 2910SOL     OW 8740   4.228   3.430   0.910
 2910SOL    HW1 8741   4.294   3.504   0.919
 2910SOL    HW2 8742   4.272   3.351   0.868
 2911SOL     OW 8743   3.764   2.406   1.114
 2911SOL    HW1 8744   3.849   2.373   1.073
 2911SOL    HW2 8745   3.777   2.421   1.212
 2912SOL     OW 8746   3.913   2.382   1.722
 2912SOL    HW1 8747   3.972   2.342   1.652
 2912SOL    HW2 8748   3.855   2.453   1.681
 2913SOL     OW 8749   4.539   2.434   0.325
 2913SOL    HW1 8750   4.546   2.345   0.279
 2913SOL    HW2 8751   4.445   2.468   0.317
 2914SOL     OW 8752   3.976   3.426   1.744
 2914SOL    HW1 8753   3.946   3.483   1.820
 2914SOL    HW2 8754   3.969   3.329   1.770
 2915SOL     OW 8755   4.395   2.326   1.269
 2915SOL    HW1 8756   4.361   2.237   1.239
 2915SOL    HW2 8757   4.421   2.380   1.189
 2916SOL     OW 8758   4.197   2.362   0.191
 2916SOL    HW1 8759   4.258   2.442   0.195
 2916SOL    HW2 8760   4.102   2.393   0.198
 2917SOL     OW 8761   3.883   2.999   1.466
 2917SOL    HW1 8762   3.905   2.938   1.542
 2917SOL    HW2 8763   3.893   2.950   1.380
 2918SOL     OW 8764   3.807   3.120   1.022
 2918SOL    HW1 8765   3.802   3.119   1.122
 2918SOL    HW2 8766   3.724   3.079   0.984
 2919SOL     OW 8767   4.412   3.524   1.716
 2919SOL    HW1 8768   4.356   3.605   1.725
 2919SOL    HW2 8769   4.464   3.528   1.630
 2920SOL     OW 8770   4.627   1.948   0.133
 2920SOL    HW1 8771   4.678   1.949   0.047
 2920SOL    HW2 8772   4.683   1.906   0.204
 2921SOL     OW 8773   3.854   3.656   1.851
 2921SOL    HW1 8774   3.813   3.582   1.904
 2921SOL    HW2 8775   3.918   3.707   1.909
 2922SOL     OW 8776   4.554   3.135   1.422
 2922SOL    HW1 8777   4.549   3.168   1.517
 2922SOL    HW2 8778   4.468   3.154   1.376
 2923SOL     OW 8779   4.396   3.478   0.154
 2923SOL    HW1 8780   4.405   3.488   0.055
 2923SOL    HW2 8781   4.356   3.389   0.175
 2924SOL     OW 8782   3.987   2.188   0.720
 2924SOL    HW1 8783   3.908   2.239   0.686
 2924SOL    HW2 8784   3.978   2.173   0.818
 2925SOL     OW 8785   4.918   3.474   0.031
 2925SOL    HW1 8786   4.924   3.381   0.068
 2925SOL    HW2 8787   4.859   3.474  -0.049
 2926SOL     OW 8788   4.546   2.864   1.372
 2926SOL    HW1 8789   4.586   2.863   1.280
 2926SOL    HW2 8790   4.556   2.956   1.412
 2927SOL     OW 8791   4.096   3.150   1.490
 2927SOL    HW1 8792   4.083   3.243   1.456
 2927SOL    HW2 8793   4.012   3.098   1.477
 2928SOL     OW 8794   4.314   3.349   0.491
 2928SOL    HW1 8795   4.356   3.291   0.421
 2928SOL    HW2 8796   4.270   3.428   0.447
 2929SOL     OW 8797   3.979   3.210   0.290
 2929SOL    HW1 8798   3.883   3.211   0.263
 2929SOL    HW2 8799   3.991   3.263   0.374
 2930SOL     OW 8800   3.829   2.875   1.726
 2930SOL    HW1 8801   3.752   2.842   1.780
 2930SOL    HW2 8802   3.914   2.845   1.768
 2931SOL     OW 8803   4.396   2.065   1.489
 2931SOL    HW1 8804   4.486   2.049   1.449
 2931SOL    HW2 8805   4.404   2.070   1.588
 2932SOL     OW 8806   3.796   2.028   0.318
 2932SOL    HW1 8807   3.779   2.111   0.264
 2932SOL    HW2 8808   3.886   1.991   0.296
 2933SOL     OW 8809   4.337   2.704   1.431
 2933SOL    HW1 8810   4.393   2.785   1.414
 2933SOL    HW2 8811   4.396   2.624   1.434
 2934SOL     OW 8812   4.440   2.427   1.708
 2934SOL    HW1 8813   4.459   2.492   1.782
 2934SOL    HW2 8814   4.500   2.347   1.717
 2935SOL     OW 8815   4.114   3.603   1.560
 2935SOL    HW1 8816   4.023   3.644   1.558
 2935SOL    HW2 8817   4.107   3.509   1.592
 2936SOL     OW 8818   4.318   2.607   0.652
 2936SOL    HW1 8819   4.368   2.692   0.633
 2936SOL    HW2 8820   4.230   2.609   0.604
 2937SOL     OW 8821   4.385   3.652   0.953
 2937SOL    HW1 8822   4.339   3.740   0.940
 2937SOL    HW2 8823   4.484   3.664   0.946
 2938SOL     OW 8824   3.945   3.176   1.844
 2938SOL    HW1 8825   3.880   3.103   1.823
 2938SOL    HW2 8826   3.949   3.190   1.942
 2939SOL     OW 8827   3.803   3.102   0.653
 2939SOL    HW1 8828   3.802   3.055   0.741
 2939SOL    HW2 8829   3.885   3.074   0.602
 2940SOL     OW 8830   4.396   3.253   1.624
 2940SOL    HW1 8831   4.318   3.203   1.662
 2940SOL    HW2 8832   4.393   3.348   1.655
 2941SOL     OW 8833   4.152   2.286   0.520
 2941SOL    HW1 8834   4.182   2.214   0.458
 2941SOL    HW2 8835   4.113   2.246   0.603
 2942SOL     OW 8836   4.041   2.409   1.280
 2942SOL    HW1 8837   4.079   2.350   1.352
 2942SOL    HW2 8838   4.081   2.383   1.192
 2943SOL     OW 8839   4.536   3.448   0.687
 2943SOL    HW1 8840   4.568   3.458   0.593
 2943SOL    HW2 8841   4.457   3.386   0.689
 2944SOL     OW 8842   4.342   3.429   1.284
 2944SOL    HW1 8843   4.337   3.511   1.341
 2944SOL    HW2 8844   4.431   3.426   1.239
 2945SOL     OW 8845   3.763   2.939   0.300
 2945SOL    HW1 8846   3.862   2.928   0.291
 2945SOL    HW2 8847   3.723   2.853   0.332
 2946SOL     OW 8848   3.954   2.490   1.975
 2946SOL    HW1 8849   3.861   2.488   2.012
 2946SOL    HW2 8850   3.955   2.451   1.883
 2947SOL     OW 8851   3.949   2.137   2.858
 2947SOL    HW1 8852   3.984   2.120   2.950
 2947SOL    HW2 8853   3.861   2.092   2.846
 2948SOL     OW 8854   3.743   2.230   2.509
 2948SOL    HW1 8855   3.661   2.273   2.548
 2948SOL    HW2 8856   3.715   2.157   2.446
 2949SOL     OW 8857   4.293   3.137   3.027
 2949SOL    HW1 8858   4.200   3.130   2.990
 2949SOL    HW2 8859   4.304   3.226   3.071
 2950SOL     OW 8860   4.574   2.660   3.685
 2950SOL    HW1 8861   4.570   2.736   3.750
 2950SOL    HW2 8862   4.596   2.696   3.594
 2951SOL     OW 8863   4.409   2.874   2.527
 2951SOL    HW1 8864   4.478   2.858   2.597
 2951SOL    HW2 8865   4.336   2.931   2.565
 2952SOL     OW 8866   4.410   3.023   3.665
 2952SOL    HW1 8867   4.470   3.102   3.679
 2952SOL    HW2 8868   4.324   3.054   3.624
 2953SOL     OW 8869   4.059   3.297   2.923
 2953SOL    HW1 8870   3.981   3.266   2.870
 2953SOL    HW2 8871   4.117   3.355   2.866
 2954SOL     OW 8872   4.162   2.254   3.361
 2954SOL    HW1 8873   4.244   2.198   3.370
 2954SOL    HW2 8874   4.081   2.196   3.365
 2955SOL     OW 8875   3.955   3.575   2.345
 2955SOL    HW1 8876   3.989   3.652   2.399
 2955SOL    HW2 8877   3.999   3.575   2.255
 2956SOL     OW 8878   3.954   3.296   2.400
 2956SOL    HW1 8879   3.928   3.392   2.400
 2956SOL    HW2 8880   3.883   3.242   2.445
 2957SOL     OW 8881   3.964   2.953   2.748
 2957SOL    HW1 8882   3.978   2.869   2.800
 2957SOL    HW2 8883   3.909   3.017   2.803
 2958SOL     OW 8884   4.344   3.648   3.301
 2958SOL    HW1 8885   4.252   3.631   3.336
 2958SOL    HW2 8886   4.372   3.740   3.327
 2959SOL     OW 8887   4.330   2.826   1.985
 2959SOL    HW1 8888   4.337   2.910   1.931
 2959SOL    HW2 8889   4.376   2.839   2.073
 2960SOL     OW 8890   3.846   2.505   2.425
 2960SOL    HW1 8891   3.801   2.417   2.442
 2960SOL    HW2 8892   3.845   2.559   2.509
 2961SOL     OW 8893   3.751   3.458   1.979
 2961SOL    HW1 8894   3.732   3.362   2.000
 2961SOL    HW2 8895   3.718   3.516   2.054
 2962SOL     OW 8896   3.837   2.599   3.459
 2962SOL    HW1 8897   3.925   2.586   3.504
 2962SOL    HW2 8898   3.824   2.696   3.437
 2963SOL     OW 8899   4.337   3.227   2.588
 2963SOL    HW1 8900   4.288   3.140   2.597
 2963SOL    HW2 8901   4.314   3.270   2.501
 2964SOL     OW 8902   4.533   1.866   2.364
 2964SOL    HW1 8903   4.573   1.957   2.355
 2964SOL    HW2 8904   4.433   1.874   2.370
 2965SOL     OW 8905   3.921   2.838   3.126
 2965SOL    HW1 8906   4.010   2.793   3.112
 2965SOL    HW2 8907   3.848   2.773   3.107
 2966SOL     OW 8908   4.041   2.113   3.663
 2966SOL    HW1 8909   4.112   2.184   3.669
 2966SOL    HW2 8910   3.953   2.152   3.691
 2967SOL     OW 8911   4.322   2.591   2.132
 2967SOL    HW1 8912   4.346   2.660   2.064
 2967SOL    HW2 8913   4.244   2.624   2.186
 2968SOL     OW 8914   4.531   2.467   3.327
 2968SOL    HW1 8915   4.484   2.464   3.416
 2968SOL    HW2 8916   4.480   2.412   3.261
 2969SOL     OW 8917   3.800   2.673   2.651
 2969SOL    HW1 8918   3.899   2.661   2.660
 2969SOL    HW2 8919   3.776   2.768   2.672
 2970SOL     OW 8920   3.854   3.683   3.433
 2970SOL    HW1 8921   3.844   3.668   3.532
 2970SOL    HW2 8922   3.768   3.719   3.397
 2971SOL     OW 8923   4.274   2.058   2.747
 2971SOL    HW1 8924   4.269   2.053   2.847
 2971SOL    HW2 8925   4.276   2.154   2.718
 2972SOL     OW 8926   4.075   3.663   2.715
 2972SOL    HW1 8927   4.125   3.577   2.721
 2972SOL    HW2 8928   4.140   3.740   2.712
 2973SOL     OW 8929   4.045   2.805   2.104
 2973SOL    HW1 8930   4.127   2.844   2.062
 2973SOL    HW2 8931   4.018   2.723   2.055
 2974SOL     OW 8932   4.185   3.128   3.589
 2974SOL    HW1 8933   4.135   3.129   3.503
 2974SOL    HW2 8934   4.122   3.110   3.665
 2975SOL     OW 8935   3.926   2.147   3.360
 2975SOL    HW1 8936   3.846   2.207   3.347
 2975SOL    HW2 8937   3.916   2.098   3.446
 2976SOL     OW 8938   4.188   3.605   2.185
 2976SOL    HW1 8939   4.221   3.644   2.271
 2976SOL    HW2 8940   4.264   3.598   2.120
 2977SOL     OW 8941   3.973   3.647   3.103
 2977SOL    HW1 8942   4.030   3.582   3.153
 2977SOL    HW2 8943   3.957   3.614   3.010
 2978SOL     OW 8944   4.106   2.562   2.342
 2978SOL    HW1 8945   4.151   2.472   2.339
 2978SOL    HW2 8946   4.012   2.551   2.375
 2979SOL     OW 8947   4.338   1.984   1.979
 2979SOL    HW1 8948   4.436   1.962   1.986
 2979SOL    HW2 8949   4.307   1.967   1.886
 2980SOL     OW 8950   4.505   2.126   3.611
 2980SOL    HW1 8951   4.572   2.065   3.654
 2980SOL    HW2 8952   4.432   2.145   3.676
 2981SOL     OW 8953   4.527   3.264   2.786
 2981SOL    HW1 8954   4.617   3.278   2.744
 2981SOL    HW2 8955   4.456   3.266   2.715
 2982SOL     OW 8956   4.646   2.365   2.761
 2982SOL    HW1 8957   4.621   2.356   2.665
 2982SOL    HW2 8958   4.694   2.283   2.792
 2983SOL     OW 8959   4.263   1.926   2.374
 2983SOL    HW1 8960   4.182   1.927   2.432
 2983SOL    HW2 8961   4.266   2.009   2.319
 2984SOL     OW 8962   4.021   1.897   2.033
 2984SOL    HW1 8963   4.070   1.981   2.012
 2984SOL    HW2 8964   4.083   1.832   2.078
 2985SOL     OW 8965   4.183   3.014   2.603
 2985SOL    HW1 8966   4.112   2.987   2.668
 2985SOL    HW2 8967   4.157   2.986   2.510
 2986SOL     OW 8968   3.802   2.418   3.248
 2986SOL    HW1 8969   3.894   2.417   3.207
 2986SOL    HW2 8970   3.796   2.492   3.315
 2987SOL     OW 8971   4.285   2.084   3.009
 2987SOL    HW1 8972   4.323   2.000   3.046
 2987SOL    HW2 8973   4.197   2.103   3.053
 2988SOL     OW 8974   4.212   3.247   2.036
 2988SOL    HW1 8975   4.125   3.232   2.083
 2988SOL    HW2 8976   4.195   3.273   1.941
 2989SOL     OW 8977   4.251   2.118   2.190
 2989SOL    HW1 8978   4.278   2.059   2.115
 2989SOL    HW2 8979   4.251   2.213   2.159
 2990SOL     OW 8980   4.639   1.951   3.264
 2990SOL    HW1 8981   4.664   1.931   3.169
 2990SOL    HW2 8982   4.711   2.007   3.306
 2991SOL     OW 8983   4.134   2.675   3.113
 2991SOL    HW1 8984   4.220   2.687   3.163
 2991SOL    HW2 8985   4.092   2.588   3.140
 2992SOL     OW 8986   3.788   3.426   3.193
 2992SOL    HW1 8987   3.742   3.508   3.159
 2992SOL    HW2 8988   3.886   3.445   3.202
 2993SOL     OW 8989   4.091   2.962   2.363
 2993SOL    HW1 8990   4.084   3.045   2.307
 2993SOL    HW2 8991   4.095   2.882   2.303
 2994SOL     OW 8992   4.290   2.399   2.727
 2994SOL    HW1 8993   4.302   2.465   2.653
 2994SOL    HW2 8994   4.336   2.433   2.810
 2995SOL     OW 8995   4.078   3.372   3.191
 2995SOL    HW1 8996   4.057   3.328   3.104
 2995SOL    HW2 8997   4.175   3.398   3.194
 2996SOL     OW 8998   4.126   2.613   3.460
 2996SOL    HW1 8999   4.194   2.668   3.413
 2996SOL    HW2 9000   4.166   2.525   3.487
 2997SOL     OW 9001   4.228   1.912   3.602
 2997SOL    HW1 9002   4.186   1.855   3.532
 2997SOL    HW2 9003   4.162   1.981   3.634
 2998SOL     OW 9004   4.297   2.732   2.891
 2998SOL    HW1 9005   4.341   2.821   2.882
 2998SOL    HW2 9006   4.234   2.732   2.968
 2999SOL     OW 9007   4.031   2.075   3.093
 2999SOL    HW1 9008   4.008   2.112   3.183
 2999SOL    HW2 9009   4.001   1.980   3.087
 3000SOL     OW 9010   3.761   3.172   3.144
 3000SOL    HW1 9011   3.814   3.123   3.212
 3000SOL    HW2 9012   3.783   3.270   3.149
 3001SOL     OW 9013   4.456   2.496   2.926
 3001SOL    HW1 9014   4.515   2.470   2.850
 3001SOL    HW2 9015   4.428   2.592   2.915
 3002SOL     OW 9016   4.031   1.925   2.480
 3002SOL    HW1 9017   4.020   2.019   2.513
 3002SOL    HW2 9018   4.026   1.862   2.557
 3003SOL     OW 9019   4.747   2.628   2.828
 3003SOL    HW1 9020   4.762   2.649   2.924
 3003SOL    HW2 9021   4.717   2.533   2.819
 3004SOL     OW 9022   4.704   3.435   3.562
 3004SOL    HW1 9023   4.684   3.479   3.474
 3004SOL    HW2 9024   4.743   3.344   3.546
 3005SOL     OW 9025   4.074   2.760   3.666
 3005SOL    HW1 9026   4.150   2.804   3.714
 3005SOL    HW2 9027   4.109   2.713   3.584
 3006SOL     OW 9028   4.043   2.672   2.811
 3006SOL    HW1 9029   4.136   2.708   2.816
 3006SOL    HW2 9030   4.037   2.587   2.863
 3007SOL     OW 9031   4.063   2.371   2.868
 3007SOL    HW1 9032   4.011   2.288   2.851
 3007SOL    HW2 9033   4.140   2.376   2.804
 3008SOL     OW 9034   3.732   3.188   2.062
 3008SOL    HW1 9035   3.639   3.209   2.031
 3008SOL    HW2 9036   3.742   3.089   2.075
 3009SOL     OW 9037   3.812   3.663   2.789
 3009SOL    HW1 9038   3.770   3.577   2.762
 3009SOL    HW2 9039   3.906   3.666   2.755
 3010SOL     OW 9040   4.228   3.430   2.772
 3010SOL    HW1 9041   4.294   3.504   2.781
 3010SOL    HW2 9042   4.272   3.351   2.730
 3011SOL     OW 9043   3.764   2.406   2.976
 3011SOL    HW1 9044   3.849   2.373   2.935
 3011SOL    HW2 9045   3.777   2.421   3.074
 3012SOL     OW 9046   3.913   2.382   3.584
 3012SOL    HW1 9047   3.972   2.342   3.514
 3012SOL    HW2 9048   3.855   2.453   3.543
 3013SOL     OW 9049   4.539   2.434   2.187
 3013SOL    HW1 9050   4.546   2.345   2.141
 3013SOL    HW2 9051   4.445   2.468   2.179
 3014SOL     OW 9052   3.976   3.426   3.606
 3014SOL    HW1 9053   3.946   3.483   3.682
 3014SOL    HW2 9054   3.969   3.329   3.632
 3015SOL     OW 9055   4.395   2.326   3.131
 3015SOL    HW1 9056   4.361   2.237   3.101
 3015SOL    HW2 9057   4.421   2.380   3.051
 3016SOL     OW 9058   4.197   2.362   2.053
 3016SOL    HW1 9059   4.258   2.442   2.057
 3016SOL    HW2 9060   4.102   2.393   2.060
 3017SOL     OW 9061   3.883   2.999   3.328
 3017SOL    HW1 9062   3.905   2.938   3.404
 3017SOL    HW2 9063   3.893   2.950   3.242
 3018SOL     OW 9064   3.807   3.120   2.884
 3018SOL    HW1 9065   3.802   3.119   2.984
 3018SOL    HW2 9066   3.724   3.079   2.846
 3019SOL     OW 9067   4.412   3.524   3.578
 3019SOL    HW1 9068   4.356   3.605   3.587
 3019SOL    HW2 9069   4.464   3.528   3.492
 3020SOL     OW 9070   4.627   1.948   1.995
 3020SOL    HW1 9071   4.678   1.949   1.909
 3020SOL    HW2 9072   4.683   1.906   2.066
 3021SOL     OW 9073   3.854   3.656   3.713
 3021SOL    HW1 9074   3.813   3.582   3.766
 3021SOL    HW2 9075   3.918   3.707   3.771
 3022SOL     OW 9076   4.554   3.135   3.284
 3022SOL    HW1 9077   4.549   3.168   3.379
 3022SOL    HW2 9078   4.468   3.154   3.238
 3023SOL     OW 9079   4.396   3.478   2.016
 3023SOL    HW1 9080   4.405   3.488   1.917
 3023SOL    HW2 9081   4.356   3.389   2.037
 3024SOL     OW 9082   3.987   2.188   2.582
 3024SOL    HW1 9083   3.908   2.239   2.548
 3024SOL    HW2 9084   3.978   2.173   2.680
 3025SOL     OW 9085   4.546   2.864   3.234
 3025SOL    HW1 9086   4.586   2.863   3.142
 3025SOL    HW2 9087   4.556   2.956   3.274
 3026SOL     OW 9088   4.096   3.150   3.352
 3026SOL    HW1 9089   4.083   3.243   3.318
 3026SOL    HW2 9090   4.012   3.098   3.339
 3027SOL     OW 9091   4.314   3.349   2.353
 3027SOL    HW1 9092   4.356   3.291   2.283
 3027SOL    HW2 9093   4.270   3.428   2.309
 3028SOL     OW 9094   3.979   3.210   2.152
 3028SOL    HW1 9095   3.883   3.211   2.125
 3028SOL    HW2 9096   3.991   3.263   2.236
 3029SOL     OW 9097   3.829   2.875   3.588
 3029SOL    HW1 9098   3.752   2.842   3.642
 3029SOL    HW2 9099   3.914   2.845   3.630
 3030SOL     OW 9100   4.396   2.065   3.351
 3030SOL    HW1 9101   4.486   2.049   3.311
 3030SOL    HW2 9102   4.404   2.070   3.450
 3031SOL     OW 9103   3.799   2.207   1.895
 3031SOL    HW1 9104   3.707   2.179   1.866
 3031SOL    HW2 9105   3.830   2.284   1.839
 3032SOL     OW 9106   3.796   2.028   2.180
 3032SOL    HW1 9107   3.779   2.111   2.126
 3032SOL    HW2 9108   3.886   1.991   2.158
 3033SOL     OW 9109   4.337   2.704   3.293
 3033SOL    HW1 9110   4.393   2.785   3.276
 3033SOL    HW2 9111   4.396   2.624   3.296
 3034SOL     OW 9112   4.440   2.427   3.570
 3034SOL    HW1 9113   4.459   2.492   3.644
 3034SOL    HW2 9114   4.500   2.347   3.579
 3035SOL     OW 9115   4.114   3.603   3.422
 3035SOL    HW1 9116   4.023   3.644   3.420
 3035SOL    HW2 9117   4.107   3.509   3.454
 3036SOL     OW 9118   4.318   2.607   2.514
 3036SOL    HW1 9119   4.368   2.692   2.495
 3036SOL    HW2 9120   4.230   2.609   2.466
 3037SOL     OW 9121   4.385   3.652   2.815
 3037SOL    HW1 9122   4.339   3.740   2.802
 3037SOL    HW2 9123   4.484   3.664   2.808
 3038SOL     OW 9124   3.945   3.176   3.706
 3038SOL    HW1 9125   3.880   3.103   3.685
 3038SOL    HW2 9126   3.949   3.190   3.804
 3039SOL     OW 9127   3.803   3.102   2.515
 3039SOL    HW1 9128   3.802   3.055   2.603
 3039SOL    HW2 9129   3.885   3.074   2.464
 3040SOL     OW 9130   4.396   3.253   3.486
 3040SOL    HW1 9131   4.318   3.203   3.524
 3040SOL    HW2 9132   4.393   3.348   3.517
 3041SOL     OW 9133   4.152   2.286   2.382
 3041SOL    HW1 9134   4.182   2.214   2.320
 3041SOL    HW2 9135   4.113   2.246   2.465
 3042SOL     OW 9136   4.041   2.409   3.142
 3042SOL    HW1 9137   4.079   2.350   3.214
 3042SOL    HW2 9138   4.081   2.383   3.054
 3043SOL     OW 9139   4.536   3.448   2.549
 3043SOL    HW1 9140   4.568   3.458   2.455
 3043SOL    HW2 9141   4.457   3.386   2.551
 3044SOL     OW 9142   4.342   3.429   3.146
 3044SOL    HW1 9143   4.337   3.511   3.203
 3044SOL    HW2 9144   4.431   3.426   3.101
 3045SOL     OW 9145   3.763   2.939   2.162
 3045SOL    HW1 9146   3.862   2.928   2.153
 3045SOL    HW2 9147   3.723   2.853   2.194
 3046SOL     OW 9148   3.954   2.490   3.837
 3046SOL    HW1 9149   3.861   2.488   3.874
 3046SOL    HW2 9150   3.955   2.451   3.745
 3047SOL     OW 9151   3.949   2.137   4.720
 3047SOL    HW1 9152   3.984   2.120   4.812
 3047SOL    HW2 9153   3.861   2.092   4.708
 3048SOL     OW 9154   3.743   2.230   4.371
 3048SOL    HW1 9155   3.661   2.273   4.410
 3048SOL    HW2 9156   3.715   2.157   4.308
 3049SOL     OW 9157   4.492   3.006   4.747
 3049SOL    HW1 9158   4.414   3.023   4.807
 3049SOL    HW2 9159   4.526   3.093   4.711
 3050SOL     OW 9160   4.409   2.874   4.389
 3050SOL    HW1 9161   4.478   2.858   4.459
 3050SOL    HW2 9162   4.336   2.931   4.427
 3051SOL     OW 9163   3.955   3.575   4.207
 3051SOL    HW1 9164   3.989   3.652   4.261
 3051SOL    HW2 9165   3.999   3.575   4.117
 3052SOL     OW 9166   3.954   3.296   4.262
 3052SOL    HW1 9167   3.928   3.392   4.262
 3052SOL    HW2 9168   3.883   3.242   4.307
 3053SOL     OW 9169   3.964   2.953   4.610
 3053SOL    HW1 9170   3.978   2.869   4.662
 3053SOL    HW2 9171   3.909   3.017   4.665
 3054SOL     OW 9172   4.330   2.826   3.847
 3054SOL    HW1 9173   4.337   2.910   3.793
 3054SOL    HW2 9174   4.376   2.839   3.935
 3055SOL     OW 9175   3.846   2.505   4.287
 3055SOL    HW1 9176   3.801   2.417   4.304
 3055SOL    HW2 9177   3.845   2.559   4.371
 3056SOL     OW 9178   3.751   3.458   3.841
 3056SOL    HW1 9179   3.732   3.362   3.862
 3056SOL    HW2 9180   3.718   3.516   3.916
 3057SOL     OW 9181   4.337   3.227   4.450
 3057SOL    HW1 9182   4.288   3.140   4.459
 3057SOL    HW2 9183   4.314   3.270   4.363
 3058SOL     OW 9184   4.533   1.866   4.226
 3058SOL    HW1 9185   4.573   1.957   4.217
 3058SOL    HW2 9186   4.433   1.874   4.232
 3059SOL     OW 9187   4.322   2.591   3.994
 3059SOL    HW1 9188   4.346   2.660   3.926
 3059SOL    HW2 9189   4.244   2.624   4.048
 3060SOL     OW 9190   3.800   2.673   4.513
 3060SOL    HW1 9191   3.899   2.661   4.522
 3060SOL    HW2 9192   3.776   2.768   4.534
 3061SOL     OW 9193   4.274   2.058   4.609
 3061SOL    HW1 9194   4.269   2.053   4.709
 3061SOL    HW2 9195   4.276   2.154   4.580
 3062SOL     OW 9196   4.075   3.663   4.577
 3062SOL    HW1 9197   4.125   3.577   4.583
 3062SOL    HW2 9198   4.140   3.740   4.574
 3063SOL     OW 9199   4.045   2.805   3.966
 3063SOL    HW1 9200   4.127   2.844   3.924
 3063SOL    HW2 9201   4.018   2.723   3.917
 3064SOL     OW 9202   4.188   3.605   4.047
 3064SOL    HW1 9203   4.221   3.644   4.133
 3064SOL    HW2 9204   4.264   3.598   3.982
 3065SOL     OW 9205   4.106   2.562   4.204
 3065SOL    HW1 9206   4.151   2.472   4.201
 3065SOL    HW2 9207   4.012   2.551   4.237
 3066SOL     OW 9208   4.338   1.984   3.841
 3066SOL    HW1 9209   4.436   1.962   3.848
 3066SOL    HW2 9210   4.307   1.967   3.748
 3067SOL     OW 9211   4.527   3.264   4.648
 3067SOL    HW1 9212   4.617   3.278   4.606
 3067SOL    HW2 9213   4.456   3.266   4.577
 3068SOL     OW 9214   4.263   1.926   4.236
 3068SOL    HW1 9215   4.182   1.927   4.294
 3068SOL    HW2 9216   4.266   2.009   4.181
 3069SOL     OW 9217   4.021   1.897   3.895
 3069SOL    HW1 9218   4.070   1.981   3.874
 3069SOL    HW2 9219   4.083   1.832   3.940
 3070SOL     OW 9220   4.183   3.014   4.465
 3070SOL    HW1 9221   4.112   2.987   4.530
 3070SOL    HW2 9222   4.157   2.986   4.372
 3071SOL     OW 9223   4.212   3.247   3.898
 3071SOL    HW1 9224   4.125   3.232   3.945
 3071SOL    HW2 9225   4.195   3.273   3.803
 3072SOL     OW 9226   4.251   2.118   4.052
 3072SOL    HW1 9227   4.278   2.059   3.977
 3072SOL    HW2 9228   4.251   2.213   4.021
 3073SOL     OW 9229   4.091   2.962   4.225
 3073SOL    HW1 9230   4.084   3.045   4.169
 3073SOL    HW2 9231   4.095   2.882   4.165
 3074SOL     OW 9232   4.290   2.399   4.589
 3074SOL    HW1 9233   4.302   2.465   4.515
 3074SOL    HW2 9234   4.336   2.433   4.672
 3075SOL     OW 9235   4.031   1.925   4.342
 3075SOL    HW1 9236   4.020   2.019   4.375
 3075SOL    HW2 9237   4.026   1.862   4.419
 3076SOL     OW 9238   3.732   3.188   3.924
 3076SOL    HW1 9239   3.639   3.209   3.893
 3076SOL    HW2 9240   3.742   3.089   3.937
 3077SOL     OW 9241   3.812   3.663   4.651
 3077SOL    HW1 9242   3.770   3.577   4.624
 3077SOL    HW2 9243   3.906   3.666   4.617
 3078SOL     OW 9244   4.539   2.434   4.049
 3078SOL    HW1 9245   4.546   2.345   4.003
 3078SOL    HW2 9246   4.445   2.468   4.041
 3079SOL     OW 9247   4.197   2.362   3.915
 3079SOL    HW1 9248   4.258   2.442   3.919
 3079SOL    HW2 9249   4.102   2.393   3.922
 3080SOL     OW 9250   4.627   1.948   3.857
 3080SOL    HW1 9251   4.678   1.949   3.771
 3080SOL    HW2 9252   4.683   1.906   3.928
 3081SOL     OW 9253   4.396   3.478   3.878
 3081SOL    HW1 9254   4.405   3.488   3.779
 3081SOL    HW2 9255   4.356   3.389   3.899
 3082SOL     OW 9256   3.987   2.188   4.444
 3082SOL    HW1 9257   3.908   2.239   4.410
 3082SOL    HW2 9258   3.978   2.173   4.542
 3083SOL     OW 9259   4.314   3.349   4.215
 3083SOL    HW1 9260   4.356   3.291   4.145
 3083SOL    HW2 9261   4.270   3.428   4.171
 3084SOL     OW 9262   3.979   3.210   4.014
 3084SOL    HW1 9263   3.883   3.211   3.987
 3084SOL    HW2 9264   3.991   3.263   4.098
 3085SOL     OW 9265   3.799   2.207   3.757
 3085SOL    HW1 9266   3.707   2.179   3.728
 3085SOL    HW2 9267   3.830   2.284   3.701
 3086SOL     OW 9268   3.796   2.028   4.042
 3086SOL    HW1 9269   3.779   2.111   3.988
 3086SOL    HW2 9270   3.886   1.991   4.020
 3087SOL     OW 9271   4.318   2.607   4.376
 3087SOL    HW1 9272   4.368   2.692   4.357
 3087SOL    HW2 9273   4.230   2.609   4.328
 3088SOL     OW 9274   4.385   3.652   4.677
 3088SOL    HW1 9275   4.339   3.740   4.664
 3088SOL    HW2 9276   4.484   3.664   4.670
 3089SOL     OW 9277   3.803   3.102   4.377
 3089SOL    HW1 9278   3.802   3.055   4.465
 3089SOL    HW2 9279   3.885   3.074   4.326
 3090SOL     OW 9280   4.152   2.286   4.244
 3090SOL    HW1 9281   4.182   2.214   4.182
 3090SOL    HW2 9282   4.113   2.246   4.327
 3091SOL     OW 9283   4.536   3.448   4.411
 3091SOL    HW1 9284   4.568   3.458   4.317
 3091SOL    HW2 9285   4.457   3.386   4.413
 3092SOL     OW 9286   3.763   2.939   4.024
 3092SOL    HW1 9287   3.862   2.928   4.015
 3092SOL    HW2 9288   3.723   2.853   4.056
 3093SOL     OW 9289   3.954   4.352   0.113
 3093SOL    HW1 9290   3.861   4.350   0.150
 3093SOL    HW2 9291   3.955   4.313   0.021
 3094SOL     OW 9292   3.949   3.999   0.996
 3094SOL    HW1 9293   3.984   3.982   1.088
 3094SOL    HW2 9294   3.861   3.954   0.984
 3095SOL     OW 9295   3.743   4.092   0.647
 3095SOL    HW1 9296   3.661   4.135   0.686
 3095SOL    HW2 9297   3.715   4.019   0.584
 3096SOL     OW 9298   4.574   4.522   1.823
 3096SOL    HW1 9299   4.570   4.598   1.888
 3096SOL    HW2 9300   4.596   4.558   1.732
 3097SOL     OW 9301   4.409   4.736   0.665
 3097SOL    HW1 9302   4.478   4.720   0.735
 3097SOL    HW2 9303   4.336   4.793   0.703
 3098SOL     OW 9304   4.162   4.116   1.499
 3098SOL    HW1 9305   4.244   4.060   1.508
 3098SOL    HW2 9306   4.081   4.058   1.503
 3099SOL     OW 9307   3.846   4.367   0.563
 3099SOL    HW1 9308   3.801   4.279   0.580
 3099SOL    HW2 9309   3.845   4.421   0.647
 3100SOL     OW 9310   3.837   4.461   1.597
 3100SOL    HW1 9311   3.925   4.448   1.642
 3100SOL    HW2 9312   3.824   4.558   1.575
 3101SOL     OW 9313   4.533   3.728   0.502
 3101SOL    HW1 9314   4.573   3.819   0.493
 3101SOL    HW2 9315   4.433   3.736   0.508
 3102SOL     OW 9316   4.041   3.975   1.801
 3102SOL    HW1 9317   4.112   4.046   1.807
 3102SOL    HW2 9318   3.953   4.014   1.829
 3103SOL     OW 9319   4.322   4.453   0.270
 3103SOL    HW1 9320   4.346   4.522   0.202
 3103SOL    HW2 9321   4.244   4.486   0.324
 3104SOL     OW 9322   4.531   4.329   1.465
 3104SOL    HW1 9323   4.484   4.326   1.554
 3104SOL    HW2 9324   4.480   4.274   1.399
 3105SOL     OW 9325   3.800   4.535   0.789
 3105SOL    HW1 9326   3.899   4.523   0.798
 3105SOL    HW2 9327   3.776   4.630   0.810
 3106SOL     OW 9328   4.274   3.920   0.885
 3106SOL    HW1 9329   4.269   3.915   0.985
 3106SOL    HW2 9330   4.276   4.016   0.856
 3107SOL     OW 9331   3.926   4.009   1.498
 3107SOL    HW1 9332   3.846   4.069   1.485
 3107SOL    HW2 9333   3.916   3.960   1.584
 3108SOL     OW 9334   4.106   4.424   0.480
 3108SOL    HW1 9335   4.151   4.334   0.477
 3108SOL    HW2 9336   4.012   4.413   0.513
 3109SOL     OW 9337   4.505   3.988   1.749
 3109SOL    HW1 9338   4.572   3.927   1.792
 3109SOL    HW2 9339   4.432   4.007   1.814
 3110SOL     OW 9340   4.646   4.227   0.899
 3110SOL    HW1 9341   4.621   4.218   0.803
 3110SOL    HW2 9342   4.694   4.145   0.930
 3111SOL     OW 9343   4.263   3.788   0.512
 3111SOL    HW1 9344   4.182   3.789   0.570
 3111SOL    HW2 9345   4.266   3.871   0.457
 3112SOL     OW 9346   4.021   3.759   0.171
 3112SOL    HW1 9347   4.070   3.843   0.150
 3112SOL    HW2 9348   4.083   3.694   0.216
 3113SOL     OW 9349   4.183   4.876   0.741
 3113SOL    HW1 9350   4.112   4.849   0.806
 3113SOL    HW2 9351   4.157   4.848   0.648
 3114SOL     OW 9352   3.802   4.280   1.386
 3114SOL    HW1 9353   3.894   4.279   1.345
 3114SOL    HW2 9354   3.796   4.354   1.453
 3115SOL     OW 9355   4.285   3.946   1.147
 3115SOL    HW1 9356   4.323   3.862   1.184
 3115SOL    HW2 9357   4.197   3.965   1.191
 3116SOL     OW 9358   4.251   3.980   0.328
 3116SOL    HW1 9359   4.278   3.921   0.253
 3116SOL    HW2 9360   4.251   4.075   0.297
 3117SOL     OW 9361   4.639   3.813   1.402
 3117SOL    HW1 9362   4.664   3.793   1.307
 3117SOL    HW2 9363   4.711   3.869   1.444
 3118SOL     OW 9364   4.134   4.537   1.251
 3118SOL    HW1 9365   4.220   4.549   1.301
 3118SOL    HW2 9366   4.092   4.450   1.278
 3119SOL     OW 9367   4.290   4.261   0.865
 3119SOL    HW1 9368   4.302   4.327   0.791
 3119SOL    HW2 9369   4.336   4.295   0.948
 3120SOL     OW 9370   4.126   4.475   1.598
 3120SOL    HW1 9371   4.194   4.530   1.551
 3120SOL    HW2 9372   4.166   4.387   1.625
 3121SOL     OW 9373   4.228   3.774   1.740
 3121SOL    HW1 9374   4.186   3.717   1.670
 3121SOL    HW2 9375   4.162   3.843   1.772
 3122SOL     OW 9376   4.297   4.594   1.029
 3122SOL    HW1 9377   4.341   4.683   1.020
 3122SOL    HW2 9378   4.234   4.594   1.106
 3123SOL     OW 9379   4.031   3.937   1.231
 3123SOL    HW1 9380   4.008   3.974   1.321
 3123SOL    HW2 9381   4.001   3.842   1.225
 3124SOL     OW 9382   4.456   4.358   1.064
 3124SOL    HW1 9383   4.515   4.332   0.988
 3124SOL    HW2 9384   4.428   4.454   1.053
 3125SOL     OW 9385   4.031   3.787   0.618
 3125SOL    HW1 9386   4.020   3.881   0.651
 3125SOL    HW2 9387   4.026   3.724   0.695
 3126SOL     OW 9388   4.747   4.490   0.966
 3126SOL    HW1 9389   4.762   4.511   1.062
 3126SOL    HW2 9390   4.717   4.395   0.957
 3127SOL     OW 9391   4.043   4.534   0.949
 3127SOL    HW1 9392   4.136   4.570   0.954
 3127SOL    HW2 9393   4.037   4.449   1.001
 3128SOL     OW 9394   4.063   4.233   1.006
 3128SOL    HW1 9395   4.011   4.150   0.989
 3128SOL    HW2 9396   4.140   4.238   0.942
 3129SOL     OW 9397   4.726   4.520   1.238
 3129SOL    HW1 9398   4.767   4.488   1.324
 3129SOL    HW2 9399   4.630   4.493   1.235
 3130SOL     OW 9400   3.764   4.268   1.114
 3130SOL    HW1 9401   3.849   4.235   1.073
 3130SOL    HW2 9402   3.777   4.283   1.212
 3131SOL     OW 9403   3.913   4.244   1.722
 3131SOL    HW1 9404   3.972   4.204   1.652
 3131SOL    HW2 9405   3.855   4.315   1.681
 3132SOL     OW 9406   4.539   4.296   0.325
 3132SOL    HW1 9407   4.546   4.207   0.279
 3132SOL    HW2 9408   4.445   4.330   0.317
 3133SOL     OW 9409   4.395   4.188   1.269
 3133SOL    HW1 9410   4.361   4.099   1.239
 3133SOL    HW2 9411   4.421   4.242   1.189
 3134SOL     OW 9412   4.197   4.224   0.191
 3134SOL    HW1 9413   4.258   4.304   0.195
 3134SOL    HW2 9414   4.102   4.255   0.198
 3135SOL     OW 9415   4.627   3.810   0.133
 3135SOL    HW1 9416   4.678   3.811   0.047
 3135SOL    HW2 9417   4.683   3.768   0.204
 3136SOL     OW 9418   3.987   4.050   0.720
 3136SOL    HW1 9419   3.908   4.101   0.686
 3136SOL    HW2 9420   3.978   4.035   0.818
 3137SOL     OW 9421   3.829   4.737   1.726
 3137SOL    HW1 9422   3.752   4.704   1.780
 3137SOL    HW2 9423   3.914   4.707   1.768
 3138SOL     OW 9424   4.396   3.927   1.489
 3138SOL    HW1 9425   4.486   3.911   1.449
 3138SOL    HW2 9426   4.404   3.932   1.588
 3139SOL     OW 9427   3.796   3.890   0.318
 3139SOL    HW1 9428   3.779   3.973   0.264
 3139SOL    HW2 9429   3.886   3.853   0.296
 3140SOL     OW 9430   4.337   4.566   1.431
 3140SOL    HW1 9431   4.393   4.647   1.414
 3140SOL    HW2 9432   4.396   4.486   1.434
 3141SOL     OW 9433   4.440   4.289   1.708
 3141SOL    HW1 9434   4.459   4.354   1.782
 3141SOL    HW2 9435   4.500   4.209   1.717
 3142SOL     OW 9436   4.318   4.469   0.652
 3142SOL    HW1 9437   4.368   4.554   0.633
 3142SOL    HW2 9438   4.230   4.471   0.604
 3143SOL     OW 9439   4.152   4.148   0.520
 3143SOL    HW1 9440   4.182   4.076   0.458
 3143SOL    HW2 9441   4.113   4.108   0.603
 3144SOL     OW 9442   4.041   4.271   1.280
 3144SOL    HW1 9443   4.079   4.212   1.352
 3144SOL    HW2 9444   4.081   4.245   1.192
 3145SOL     OW 9445   3.954   4.352   1.975
 3145SOL    HW1 9446   3.861   4.350   2.012
 3145SOL    HW2 9447   3.955   4.313   1.883
 3146SOL     OW 9448   3.949   3.999   2.858
 3146SOL    HW1 9449   3.984   3.982   2.950
 3146SOL    HW2 9450   3.861   3.954   2.846
 3147SOL     OW 9451   3.743   4.092   2.509
 3147SOL    HW1 9452   3.661   4.135   2.548
 3147SOL    HW2 9453   3.715   4.019   2.446
 3148SOL     OW 9454   4.574   4.522   3.685
 3148SOL    HW1 9455   4.570   4.598   3.750
 3148SOL    HW2 9456   4.596   4.558   3.594
 3149SOL     OW 9457   4.409   4.736   2.527
 3149SOL    HW1 9458   4.478   4.720   2.597
 3149SOL    HW2 9459   4.336   4.793   2.565
 3150SOL     OW 9460   4.162   4.116   3.361
 3150SOL    HW1 9461   4.244   4.060   3.370
 3150SOL    HW2 9462   4.081   4.058   3.365
 3151SOL     OW 9463   3.846   4.367   2.425
 3151SOL    HW1 9464   3.801   4.279   2.442
 3151SOL    HW2 9465   3.845   4.421   2.509
 3152SOL     OW 9466   3.837   4.461   3.459
 3152SOL    HW1 9467   3.925   4.448   3.504
 3152SOL    HW2 9468   3.824   4.558   3.437
 3153SOL     OW 9469   4.533   3.728   2.364
 3153SOL    HW1 9470   4.573   3.819   2.355
 3153SOL    HW2 9471   4.433   3.736   2.370
 3154SOL     OW 9472   4.041   3.975   3.663
 3154SOL    HW1 9473   4.112   4.046   3.669
 3154SOL    HW2 9474   3.953   4.014   3.691
 3155SOL     OW 9475   4.322   4.453   2.132
 3155SOL    HW1 9476   4.346   4.522   2.064
 3155SOL    HW2 9477   4.244   4.486   2.186
 3156SOL     OW 9478   4.531   4.329   3.327
 3156SOL    HW1 9479   4.484   4.326   3.416
 3156SOL    HW2 9480   4.480   4.274   3.261
 3157SOL     OW 9481   3.800   4.535   2.651
 3157SOL    HW1 9482   3.899   4.523   2.660
 3157SOL    HW2 9483   3.776   4.630   2.672
 3158SOL     OW 9484   4.274   3.920   2.747
 3158SOL    HW1 9485   4.269   3.915   2.847
 3158SOL    HW2 9486   4.276   4.016   2.718
 3159SOL     OW 9487   3.926   4.009   3.360
 3159SOL    HW1 9488   3.846   4.069   3.347
 3159SOL    HW2 9489   3.916   3.960   3.446
 3160SOL     OW 9490   4.106   4.424   2.342
 3160SOL    HW1 9491   4.151   4.334   2.339
 3160SOL    HW2 9492   4.012   4.413   2.375
 3161SOL     OW 9493   4.338   3.846   1.979
 3161SOL    HW1 9494   4.436   3.824   1.986
 3161SOL    HW2 9495   4.307   3.829   1.886
 3162SOL     OW 9496   4.505   3.988   3.611
 3162SOL    HW1 9497   4.572   3.927   3.654
 3162SOL    HW2 9498   4.432   4.007   3.676
 3163SOL     OW 9499   4.646   4.227   2.761
 3163SOL    HW1 9500   4.621   4.218   2.665
 3163SOL    HW2 9501   4.694   4.145   2.792
 3164SOL     OW 9502   4.263   3.788   2.374
 3164SOL    HW1 9503   4.182   3.789   2.432
 3164SOL    HW2 9504   4.266   3.871   2.319
 3165SOL     OW 9505   4.021   3.759   2.033
 3165SOL    HW1 9506   4.070   3.843   2.012
 3165SOL    HW2 9507   4.083   3.694   2.078
 3166SOL     OW 9508   4.183   4.876   2.603
 3166SOL    HW1 9509   4.112   4.849   2.668
 3166SOL    HW2 9510   4.157   4.848   2.510
 3167SOL     OW 9511   3.802   4.280   3.248
 3167SOL    HW1 9512   3.894   4.279   3.207
 3167SOL    HW2 9513   3.796   4.354   3.315
 3168SOL     OW 9514   4.285   3.946   3.009
 3168SOL    HW1 9515   4.323   3.862   3.046
 3168SOL    HW2 9516   4.197   3.965   3.053
 3169SOL     OW 9517   4.251   3.980   2.190
 3169SOL    HW1 9518   4.278   3.921   2.115
 3169SOL    HW2 9519   4.251   4.075   2.159
 3170SOL     OW 9520   4.639   3.813   3.264
 3170SOL    HW1 9521   4.664   3.793   3.169
 3170SOL    HW2 9522   4.711   3.869   3.306
 3171SOL     OW 9523   4.134   4.537   3.113
 3171SOL    HW1 9524   4.220   4.549   3.163
 3171SOL    HW2 9525   4.092   4.450   3.140
 3172SOL     OW 9526   4.290   4.261   2.727
 3172SOL    HW1 9527   4.302   4.327   2.653
 3172SOL    HW2 9528   4.336   4.295   2.810
 3173SOL     OW 9529   4.126   4.475   3.460
 3173SOL    HW1 9530   4.194   4.530   3.413
 3173SOL    HW2 9531   4.166   4.387   3.487
 3174SOL     OW 9532   4.228   3.774   3.602
 3174SOL    HW1 9533   4.186   3.717   3.532
 3174SOL    HW2 9534   4.162   3.843   3.634
 3175SOL     OW 9535   4.297   4.594   2.891
 3175SOL    HW1 9536   4.341   4.683   2.882
 3175SOL    HW2 9537   4.234   4.594   2.968
 3176SOL     OW 9538   4.031   3.937   3.093
 3176SOL    HW1 9539   4.008   3.974   3.183
 3176SOL    HW2 9540   4.001   3.842   3.087
 3177SOL     OW 9541   4.456   4.358   2.926
 3177SOL    HW1 9542   4.515   4.332   2.850
 3177SOL    HW2 9543   4.428   4.454   2.915
 3178SOL     OW 9544   4.031   3.787   2.480
 3178SOL    HW1 9545   4.020   3.881   2.513
 3178SOL    HW2 9546   4.026   3.724   2.557
 3179SOL     OW 9547   4.747   4.490   2.828
 3179SOL    HW1 9548   4.762   4.511   2.924
 3179SOL    HW2 9549   4.717   4.395   2.819
 3180SOL     OW 9550   4.043   4.534   2.811
 3180SOL    HW1 9551   4.136   4.570   2.816
 3180SOL    HW2 9552   4.037   4.449   2.863
 3181SOL     OW 9553   4.063   4.233   2.868
 3181SOL    HW1 9554   4.011   4.150   2.851
 3181SOL    HW2 9555   4.140   4.238   2.804
 3182SOL     OW 9556   4.726   4.520   3.100
 3182SOL    HW1 9557   4.767   4.488   3.186
 3182SOL    HW2 9558   4.630   4.493   3.097
 3183SOL     OW 9559   3.764   4.268   2.976
 3183SOL    HW1 9560   3.849   4.235   2.935
 3183SOL    HW2 9561   3.777   4.283   3.074
 3184SOL     OW 9562   3.913   4.244   3.584
 3184SOL    HW1 9563   3.972   4.204   3.514
 3184SOL    HW2 9564   3.855   4.315   3.543
 3185SOL     OW 9565   4.539   4.296   2.187
 3185SOL    HW1 9566   4.546   4.207   2.141
 3185SOL    HW2 9567   4.445   4.330   2.179
 3186SOL     OW 9568   4.395   4.188   3.131
 3186SOL    HW1 9569   4.361   4.099   3.101
 3186SOL    HW2 9570   4.421   4.242   3.051
 3187SOL     OW 9571   4.197   4.224   2.053
 3187SOL    HW1 9572   4.258   4.304   2.057
 3187SOL    HW2 9573   4.102   4.255   2.060
 3188SOL     OW 9574   4.627   3.810   1.995
 3188SOL    HW1 9575   4.678   3.811   1.909
 3188SOL    HW2 9576   4.683   3.768   2.066
 3189SOL     OW 9577   3.987   4.050   2.582
 3189SOL    HW1 9578   3.908   4.101   2.548
 3189SOL    HW2 9579   3.978   4.035   2.680
 3190SOL     OW 9580   4.640   4.634   2.153
 3190SOL    HW1 9581   4.703   4.672   2.085
 3190SOL    HW2 9582   4.680   4.551   2.192
 3191SOL     OW 9583   3.829   4.737   3.588
 3191SOL    HW1 9584   3.752   4.704   3.642
 3191SOL    HW2 9585   3.914   4.707   3.630
 3192SOL     OW 9586   4.396   3.927   3.351
 3192SOL    HW1 9587   4.486   3.911   3.311
 3192SOL    HW2 9588   4.404   3.932   3.450
 3193SOL     OW 9589   3.799   4.069   1.895
 3193SOL    HW1 9590   3.707   4.041   1.866
 3193SOL    HW2 9591   3.830   4.146   1.839
 3194SOL     OW 9592   3.796   3.890   2.180
 3194SOL    HW1 9593   3.779   3.973   2.126
 3194SOL    HW2 9594   3.886   3.853   2.158
 3195SOL     OW 9595   4.337   4.566   3.293
 3195SOL    HW1 9596   4.393   4.647   3.276
 3195SOL    HW2 9597   4.396   4.486   3.296
 3196SOL     OW 9598   4.440   4.289   3.570
 3196SOL    HW1 9599   4.459   4.354   3.644
 3196SOL    HW2 9600   4.500   4.209   3.579
 3197SOL     OW 9601   4.318   4.469   2.514
 3197SOL    HW1 9602   4.368   4.554   2.495
 3197SOL    HW2 9603   4.230   4.471   2.466
 3198SOL     OW 9604   4.152   4.148   2.382
 3198SOL    HW1 9605   4.182   4.076   2.320
 3198SOL    HW2 9606   4.113   4.108   2.465
 3199SOL     OW 9607   4.041   4.271   3.142
 3199SOL    HW1 9608   4.079   4.212   3.214
 3199SOL    HW2 9609   4.081   4.245   3.054
 3200SOL     OW 9610   3.954   4.352   3.837
 3200SOL    HW1 9611   3.861   4.350   3.874
 3200SOL    HW2 9612   3.955   4.313   3.745
 3201SOL     OW 9613   3.949   3.999   4.720
 3201SOL    HW1 9614   3.984   3.982   4.812
 3201SOL    HW2 9615   3.861   3.954   4.708
 3202SOL     OW 9616   3.743   4.092   4.371
 3202SOL    HW1 9617   3.661   4.135   4.410
 3202SOL    HW2 9618   3.715   4.019   4.308
 3203SOL     OW 9619   4.409   4.736   4.389
 3203SOL    HW1 9620   4.478   4.720   4.459
 3203SOL    HW2 9621   4.336   4.793   4.427
 3204SOL     OW 9622   3.846   4.367   4.287
 3204SOL    HW1 9623   3.801   4.279   4.304
 3204SOL    HW2 9624   3.845   4.421   4.371
 3205SOL     OW 9625   4.533   3.728   4.226
 3205SOL    HW1 9626   4.573   3.819   4.217
 3205SOL    HW2 9627   4.433   3.736   4.232
 3206SOL     OW 9628   4.322   4.453   3.994
 3206SOL    HW1 9629   4.346   4.522   3.926
 3206SOL    HW2 9630   4.244   4.486   4.048
 3207SOL     OW 9631   3.800   4.535   4.513
 3207SOL    HW1 9632   3.899   4.523   4.522
 3207SOL    HW2 9633   3.776   4.630   4.534
 3208SOL     OW 9634   4.274   3.920   4.609
 3208SOL    HW1 9635   4.269   3.915   4.709
 3208SOL    HW2 9636   4.276   4.016   4.580
 3209SOL     OW 9637   4.106   4.424   4.204
 3209SOL    HW1 9638   4.151   4.334   4.201
 3209SOL    HW2 9639   4.012   4.413   4.237
 3210SOL     OW 9640   4.338   3.846   3.841
 3210SOL    HW1 9641   4.436   3.824   3.848
 3210SOL    HW2 9642   4.307   3.829   3.748
 3211SOL     OW 9643   4.263   3.788   4.236
 3211SOL    HW1 9644   4.182   3.789   4.294
 3211SOL    HW2 9645   4.266   3.871   4.181
 3212SOL     OW 9646   4.021   3.759   3.895
 3212SOL    HW1 9647   4.070   3.843   3.874
 3212SOL    HW2 9648   4.083   3.694   3.940
 3213SOL     OW 9649   4.183   4.876   4.465
 3213SOL    HW1 9650   4.112   4.849   4.530
 3213SOL    HW2 9651   4.157   4.848   4.372
 3214SOL     OW 9652   4.251   3.980   4.052
 3214SOL    HW1 9653   4.278   3.921   3.977
 3214SOL    HW2 9654   4.251   4.075   4.021
 3215SOL     OW 9655   4.290   4.261   4.589
 3215SOL    HW1 9656   4.302   4.327   4.515
 3215SOL    HW2 9657   4.336   4.295   4.672
 3216SOL     OW 9658   4.031   3.787   4.342
 3216SOL    HW1 9659   4.020   3.881   4.375
 3216SOL    HW2 9660   4.026   3.724   4.419
 3217SOL     OW 9661   4.539   4.296   4.049
 3217SOL    HW1 9662   4.546   4.207   4.003
 3217SOL    HW2 9663   4.445   4.330   4.041
 3218SOL     OW 9664   4.197   4.224   3.915
 3218SOL    HW1 9665   4.258   4.304   3.919
 3218SOL    HW2 9666   4.102   4.255   3.922
 3219SOL     OW 9667   4.627   3.810   3.857
 3219SOL    HW1 9668   4.678   3.811   3.771
 3219SOL    HW2 9669   4.683   3.768   3.928
 3220SOL     OW 9670   3.987   4.050   4.444
 3220SOL    HW1 9671   3.908   4.101   4.410
 3220SOL    HW2 9672   3.978   4.035   4.542
 3221SOL     OW 9673   4.640   4.634   4.015
 3221SOL    HW1 9674   4.703   4.672   3.947
 3221SOL    HW2 9675   4.680   4.551   4.054
 3222SOL     OW 9676   3.799   4.069   3.757
 3222SOL    HW1 9677   3.707   4.041   3.728
 3222SOL    HW2 9678   3.830   4.146   3.701
 3223SOL     OW 9679   3.796   3.890   4.042
 3223SOL    HW1 9680   3.779   3.973   3.988
 3223SOL    HW2 9681   3.886   3.853   4.020
 3224SOL     OW 9682   4.318   4.469   4.376
 3224SOL    HW1 9683   4.368   4.554   4.357
 3224SOL    HW2 9684   4.230   4.471   4.328
 3225SOL     OW 9685   4.152   4.148   4.244
 3225SOL    HW1 9686   4.182   4.076   4.182
 3225SOL    HW2 9687   4.113   4.108   4.327
   4.64240   4.64240   4.64240
