mobley_1905088_GMX.gro created by acpype (v: 2023.10.27) on Thu May 21 00:04:39 2026
   15
    1MOL     C1    1   2.215   2.502   2.317
    1MOL     C2    2   2.354   2.503   2.317
    1MOL     C3    3   2.147   2.381   2.317
    1MOL     C4    4   2.424   2.383   2.318
    1MOL     C5    5   2.217   2.262   2.318
    1MOL     C6    6   2.356   2.262   2.318
    1MOL     C7    7   2.432   2.133   2.312
    1MOL    BR1    8   2.473   2.062   2.491
    1MOL     H1    9   2.160   2.595   2.316
    1MOL     H2   10   2.407   2.596   2.317
    1MOL     H3   11   2.039   2.380   2.317
    1MOL     H4   12   2.531   2.385   2.318
    1MOL     H5   13   2.164   2.168   2.318
    1MOL     H6   14   2.376   2.055   2.264
    1MOL     H7   15   2.527   2.144   2.264
   4.64240   4.64240   4.64240
