23_dimethylbutane
    20
   0.5110000  -0.7950000   0.5540000   0.2490000   0.5310000   2.6600000
   1.2270000  -2.3860000   3.1710000   3.2010000  -1.8540000   1.7260000
   1.2460000  -0.2130000   1.7650000   2.0680000  -1.2570000   2.5680000
  -0.2470000  -1.5260000   0.8520000   0.0000000   0.0000000  -0.0000000
   1.2020000  -1.2800000  -0.1410000  -0.2110000   1.3610000   2.1130000
  -0.5570000  -0.1230000   3.0060000   0.7500000   0.9530000   3.5380000
   0.4480000  -1.9970000   3.8330000   0.7490000  -2.9940000   2.3970000
   1.8570000  -3.0530000   3.7700000   2.8190000  -2.4900000   0.9210000
   3.8570000  -2.4710000   2.3500000   3.8140000  -1.0650000   1.2800000
   1.9520000   0.5380000   1.3870000   2.5440000  -0.7250000   3.4030000
