; mobley_4561957_GMX_OPLS.top created by acpype (v: 2023.10.27) on Wed May 20 23:56:27 2026

; Include forcefield parameters
#include "ffoplsaa.itp"

; Include mobley_4561957_GMX.itp topology
#include "mobley_4561957_GMX.itp"

; Ligand position restraints
#ifdef POSRES_LIG
#include "posre_mobley_4561957.itp"
#endif

[ system ]
 mobley_4561957

[ molecules ]
; Compound        nmols
 mobley_4561957   1     
