; mobley_4561957_GMX.itp created by acpype (v: 2023.10.27) on Wed May 20 23:56:27 2026

[ atomtypes ]
;name   bond_type     mass     charge   ptype   sigma         epsilon       Amb
 c3       c3          0.00000  0.00000   A     3.39771e-01   4.51035e-01 ; 1.91  0.1078
 hc       hc          0.00000  0.00000   A     2.60018e-01   8.70272e-02 ; 1.46  0.0208

[ moleculetype ]
;name            nrexcl
 mobley_4561957   3

[ atoms ]
;   nr  type  resi  res  atom  cgnr     charge      mass       ; qtot   bond_type
     1   c3     1   MOL    C1    1    -0.088601     12.01000 ; qtot -0.089
     2   c3     1   MOL    C2    2    -0.088601     12.01000 ; qtot -0.177
     3   c3     1   MOL    C3    3    -0.088601     12.01000 ; qtot -0.266
     4   c3     1   MOL    C4    4    -0.088601     12.01000 ; qtot -0.354
     5   c3     1   MOL    C5    5    -0.063700     12.01000 ; qtot -0.418
     6   c3     1   MOL    C6    6    -0.063700     12.01000 ; qtot -0.482
     7   hc     1   MOL    H1    7     0.032867      1.00800 ; qtot -0.449
     8   hc     1   MOL    H2    8     0.032867      1.00800 ; qtot -0.416
     9   hc     1   MOL    H3    9     0.032867      1.00800 ; qtot -0.383
    10   hc     1   MOL    H4   10     0.032867      1.00800 ; qtot -0.350
    11   hc     1   MOL    H5   11     0.032867      1.00800 ; qtot -0.317
    12   hc     1   MOL    H6   12     0.032867      1.00800 ; qtot -0.285
    13   hc     1   MOL    H7   13     0.032867      1.00800 ; qtot -0.252
    14   hc     1   MOL    H8   14     0.032867      1.00800 ; qtot -0.219
    15   hc     1   MOL    H9   15     0.032867      1.00800 ; qtot -0.186
    16   hc     1   MOL   H10   16     0.032867      1.00800 ; qtot -0.153
    17   hc     1   MOL   H11   17     0.032867      1.00800 ; qtot -0.120
    18   hc     1   MOL   H12   18     0.032867      1.00800 ; qtot -0.087
    19   hc     1   MOL   H13   19     0.043700      1.00800 ; qtot -0.044
    20   hc     1   MOL   H14   20     0.043700      1.00800 ; qtot 0.000

[ bonds ]
;   ai     aj funct   r             k
     1      5   1    1.5354e-01    1.9154e+05 ;     C1 - C5    
     1      7   1    1.0962e-01    2.8891e+05 ;     C1 - H1    
     1      8   1    1.0962e-01    2.8891e+05 ;     C1 - H2    
     1      9   1    1.0962e-01    2.8891e+05 ;     C1 - H3    
     2      5   1    1.5354e-01    1.9154e+05 ;     C2 - C5    
     2     10   1    1.0962e-01    2.8891e+05 ;     C2 - H4    
     2     11   1    1.0962e-01    2.8891e+05 ;     C2 - H5    
     2     12   1    1.0962e-01    2.8891e+05 ;     C2 - H6    
     3      6   1    1.5354e-01    1.9154e+05 ;     C3 - C6    
     3     13   1    1.0962e-01    2.8891e+05 ;     C3 - H7    
     3     14   1    1.0962e-01    2.8891e+05 ;     C3 - H8    
     3     15   1    1.0962e-01    2.8891e+05 ;     C3 - H9    
     4      6   1    1.5354e-01    1.9154e+05 ;     C4 - C6    
     4     16   1    1.0962e-01    2.8891e+05 ;     C4 - H10   
     4     17   1    1.0962e-01    2.8891e+05 ;     C4 - H11   
     4     18   1    1.0962e-01    2.8891e+05 ;     C4 - H12   
     5      6   1    1.5354e-01    1.9154e+05 ;     C5 - C6    
     5     19   1    1.0962e-01    2.8891e+05 ;     C5 - H13   
     6     20   1    1.0962e-01    2.8891e+05 ;     C6 - H14   

[ pairs ]
;   ai     aj    funct
     1      3      1 ;     C1 - C3    
     1      4      1 ;     C1 - C4    
     1     10      1 ;     C1 - H4    
     1     11      1 ;     C1 - H5    
     1     12      1 ;     C1 - H6    
     1     20      1 ;     C1 - H14   
     2      3      1 ;     C2 - C3    
     2      4      1 ;     C2 - C4    
     2     20      1 ;     C2 - H14   
     3     16      1 ;     C3 - H10   
     3     17      1 ;     C3 - H11   
     3     18      1 ;     C3 - H12   
     3     19      1 ;     C3 - H13   
     4     13      1 ;     C4 - H7    
     4     14      1 ;     C4 - H8    
     4     15      1 ;     C4 - H9    
     4     19      1 ;     C4 - H13   
     5     13      1 ;     C5 - H7    
     5     14      1 ;     C5 - H8    
     5     15      1 ;     C5 - H9    
     5     16      1 ;     C5 - H10   
     5     17      1 ;     C5 - H11   
     5     18      1 ;     C5 - H12   
     6     10      1 ;     C6 - H4    
     6     11      1 ;     C6 - H5    
     6     12      1 ;     C6 - H6    
     7      2      1 ;     H1 - C2    
     7      6      1 ;     H1 - C6    
     7     19      1 ;     H1 - H13   
     8      2      1 ;     H2 - C2    
     8      6      1 ;     H2 - C6    
     8     19      1 ;     H2 - H13   
     9      2      1 ;     H3 - C2    
     9      6      1 ;     H3 - C6    
     9     19      1 ;     H3 - H13   
    10     19      1 ;     H4 - H13   
    11     19      1 ;     H5 - H13   
    12     19      1 ;     H6 - H13   
    13     20      1 ;     H7 - H14   
    14     20      1 ;     H8 - H14   
    15     20      1 ;     H9 - H14   
    16     20      1 ;    H10 - H14   
    17     20      1 ;    H11 - H14   
    18     20      1 ;    H12 - H14   
    19     20      1 ;    H13 - H14   

[ angles ]
;   ai     aj     ak    funct   theta         cth
     1      5      2      1    1.1263e+02    5.0099e+02 ;     C1 - C5     - C2    
     1      5      6      1    1.1263e+02    5.0099e+02 ;     C1 - C5     - C6    
     1      5     19      1    1.0968e+02    3.6208e+02 ;     C1 - C5     - H13   
     2      5      6      1    1.1263e+02    5.0099e+02 ;     C2 - C5     - C6    
     2      5     19      1    1.0968e+02    3.6208e+02 ;     C2 - C5     - H13   
     3      6      4      1    1.1263e+02    5.0099e+02 ;     C3 - C6     - C4    
     3      6      5      1    1.1263e+02    5.0099e+02 ;     C3 - C6     - C5    
     3      6     20      1    1.0968e+02    3.6208e+02 ;     C3 - C6     - H14   
     4      6      5      1    1.1263e+02    5.0099e+02 ;     C4 - C6     - C5    
     4      6     20      1    1.0968e+02    3.6208e+02 ;     C4 - C6     - H14   
     5      1      7      1    1.0968e+02    3.6208e+02 ;     C5 - C1     - H1    
     5      1      8      1    1.0968e+02    3.6208e+02 ;     C5 - C1     - H2    
     5      1      9      1    1.0968e+02    3.6208e+02 ;     C5 - C1     - H3    
     5      2     10      1    1.0968e+02    3.6208e+02 ;     C5 - C2     - H4    
     5      2     11      1    1.0968e+02    3.6208e+02 ;     C5 - C2     - H5    
     5      2     12      1    1.0968e+02    3.6208e+02 ;     C5 - C2     - H6    
     5      6     20      1    1.0968e+02    3.6208e+02 ;     C5 - C6     - H14   
     6      3     13      1    1.0968e+02    3.6208e+02 ;     C6 - C3     - H7    
     6      3     14      1    1.0968e+02    3.6208e+02 ;     C6 - C3     - H8    
     6      3     15      1    1.0968e+02    3.6208e+02 ;     C6 - C3     - H9    
     6      4     16      1    1.0968e+02    3.6208e+02 ;     C6 - C4     - H10   
     6      4     17      1    1.0968e+02    3.6208e+02 ;     C6 - C4     - H11   
     6      4     18      1    1.0968e+02    3.6208e+02 ;     C6 - C4     - H12   
     6      5     19      1    1.0968e+02    3.6208e+02 ;     C6 - C5     - H13   
     7      1      8      1    1.0773e+02    2.9957e+02 ;     H1 - C1     - H2    
     7      1      9      1    1.0773e+02    2.9957e+02 ;     H1 - C1     - H3    
     8      1      9      1    1.0773e+02    2.9957e+02 ;     H2 - C1     - H3    
    10      2     11      1    1.0773e+02    2.9957e+02 ;     H4 - C2     - H5    
    10      2     12      1    1.0773e+02    2.9957e+02 ;     H4 - C2     - H6    
    11      2     12      1    1.0773e+02    2.9957e+02 ;     H5 - C2     - H6    
    13      3     14      1    1.0773e+02    2.9957e+02 ;     H7 - C3     - H8    
    13      3     15      1    1.0773e+02    2.9957e+02 ;     H7 - C3     - H9    
    14      3     15      1    1.0773e+02    2.9957e+02 ;     H8 - C3     - H9    
    16      4     17      1    1.0773e+02    2.9957e+02 ;    H10 - C4     - H11   
    16      4     18      1    1.0773e+02    2.9957e+02 ;    H10 - C4     - H12   
    17      4     18      1    1.0773e+02    2.9957e+02 ;    H11 - C4     - H12   

[ dihedrals ] ; propers
; for gromacs 4.5 or higher, using funct 9
;    i      j      k      l   func   phase     kd      pn
     1      5      2     10      9     0.00   0.54392   3 ;     C1-    C5-    C2-    H4
     1      5      2     11      9     0.00   0.54392   3 ;     C1-    C5-    C2-    H5
     1      5      2     12      9     0.00   0.54392   3 ;     C1-    C5-    C2-    H6
     1      5      6      3      9     0.00   2.17568   3 ;     C1-    C5-    C6-    C3
     1      5      6      4      9     0.00   2.17568   3 ;     C1-    C5-    C6-    C4
     1      5      6     20      9     0.00   0.54392   3 ;     C1-    C5-    C6-   H14
     2      5      6      3      9     0.00   2.17568   3 ;     C2-    C5-    C6-    C3
     2      5      6      4      9     0.00   2.17568   3 ;     C2-    C5-    C6-    C4
     2      5      6     20      9     0.00   0.54392   3 ;     C2-    C5-    C6-   H14
     3      6      4     16      9     0.00   0.54392   3 ;     C3-    C6-    C4-   H10
     3      6      4     17      9     0.00   0.54392   3 ;     C3-    C6-    C4-   H11
     3      6      4     18      9     0.00   0.54392   3 ;     C3-    C6-    C4-   H12
     3      6      5     19      9     0.00   0.54392   3 ;     C3-    C6-    C5-   H13
     4      6      3     13      9     0.00   0.54392   3 ;     C4-    C6-    C3-    H7
     4      6      3     14      9     0.00   0.54392   3 ;     C4-    C6-    C3-    H8
     4      6      3     15      9     0.00   0.54392   3 ;     C4-    C6-    C3-    H9
     4      6      5     19      9     0.00   0.54392   3 ;     C4-    C6-    C5-   H13
     5      6      3     13      9     0.00   0.54392   3 ;     C5-    C6-    C3-    H7
     5      6      3     14      9     0.00   0.54392   3 ;     C5-    C6-    C3-    H8
     5      6      3     15      9     0.00   0.54392   3 ;     C5-    C6-    C3-    H9
     5      6      4     16      9     0.00   0.54392   3 ;     C5-    C6-    C4-   H10
     5      6      4     17      9     0.00   0.54392   3 ;     C5-    C6-    C4-   H11
     5      6      4     18      9     0.00   0.54392   3 ;     C5-    C6-    C4-   H12
     6      5      2     10      9     0.00   0.54392   3 ;     C6-    C5-    C2-    H4
     6      5      2     11      9     0.00   0.54392   3 ;     C6-    C5-    C2-    H5
     6      5      2     12      9     0.00   0.54392   3 ;     C6-    C5-    C2-    H6
     7      1      5      2      9     0.00   0.54392   3 ;     H1-    C1-    C5-    C2
     7      1      5      6      9     0.00   0.54392   3 ;     H1-    C1-    C5-    C6
     7      1      5     19      9     0.00   0.50208   3 ;     H1-    C1-    C5-   H13
     8      1      5      2      9     0.00   0.54392   3 ;     H2-    C1-    C5-    C2
     8      1      5      6      9     0.00   0.54392   3 ;     H2-    C1-    C5-    C6
     8      1      5     19      9     0.00   0.50208   3 ;     H2-    C1-    C5-   H13
     9      1      5      2      9     0.00   0.54392   3 ;     H3-    C1-    C5-    C2
     9      1      5      6      9     0.00   0.54392   3 ;     H3-    C1-    C5-    C6
     9      1      5     19      9     0.00   0.50208   3 ;     H3-    C1-    C5-   H13
    10      2      5     19      9     0.00   0.50208   3 ;     H4-    C2-    C5-   H13
    11      2      5     19      9     0.00   0.50208   3 ;     H5-    C2-    C5-   H13
    12      2      5     19      9     0.00   0.50208   3 ;     H6-    C2-    C5-   H13
    13      3      6     20      9     0.00   0.50208   3 ;     H7-    C3-    C6-   H14
    14      3      6     20      9     0.00   0.50208   3 ;     H8-    C3-    C6-   H14
    15      3      6     20      9     0.00   0.50208   3 ;     H9-    C3-    C6-   H14
    16      4      6     20      9     0.00   0.50208   3 ;    H10-    C4-    C6-   H14
    17      4      6     20      9     0.00   0.50208   3 ;    H11-    C4-    C6-   H14
    18      4      6     20      9     0.00   0.50208   3 ;    H12-    C4-    C6-   H14
    19      5      6     20      9     0.00   0.50208   3 ;    H13-    C5-    C6-   H14
