mobley_4561957_GMX.gro created by acpype (v: 2023.10.27) on Wed May 20 23:56:27 2026
 20
    1  MOL   C1    1   0.051  -0.080   0.055
    1  MOL   C2    2   0.025   0.053   0.266
    1  MOL   C3    3   0.123  -0.239   0.317
    1  MOL   C4    4   0.320  -0.185   0.173
    1  MOL   C5    5   0.125  -0.021   0.176
    1  MOL   C6    6   0.207  -0.126   0.257
    1  MOL   H1    7  -0.025  -0.153   0.085
    1  MOL   H2    8   0.000   0.000  -0.000
    1  MOL   H3    9   0.120  -0.128  -0.014
    1  MOL   H4   10  -0.021   0.136   0.211
    1  MOL   H5   11  -0.056  -0.012   0.301
    1  MOL   H6   12   0.075   0.095   0.354
    1  MOL   H7   13   0.045  -0.200   0.383
    1  MOL   H8   14   0.075  -0.299   0.240
    1  MOL   H9   15   0.186  -0.305   0.377
    1  MOL  H10   16   0.282  -0.249   0.092
    1  MOL  H11   17   0.386  -0.247   0.235
    1  MOL  H12   18   0.381  -0.106   0.128
    1  MOL  H13   19   0.195   0.054   0.139
    1  MOL  H14   20   0.254  -0.072   0.340
    8.82800     8.82800     7.94800
