%VERSION  VERSION_STAMP = V0001.000  DATE = 05/21/26  00:04:06                  
%FLAG TITLE                                                                     
%FORMAT(20a4)                                                                   
hexanoic_acid                                                                   
%FLAG POINTERS                                                                  
%FORMAT(10I8)                                                                   
      20       6      12       7      27       7      42      10       0       0
      99       1       7       7      10       6       9      17       6       0
       0       0       0       0       0       0       0       0      20       0
       0
%FLAG ATOM_NAME                                                                 
%FORMAT(20a4)                                                                   
C1  C2  C3  C4  C5  C6  O1  O2  H1  H2  H3  H4  H5  H6  H7  H8  H9  H10 H11 H12 
%FLAG CHARGE                                                                    
%FORMAT(5E16.8)                                                                 
  1.15729827E+01 -1.69649613E+00 -2.30329872E+00 -1.44685062E+00 -1.46507292E+00
 -1.44685062E+00 -1.00404873E+01 -1.11538698E+01  6.20159536E-01  6.20159536E-01
  6.20159536E-01  1.45231731E+00  1.45231731E+00  7.59869910E-01  7.59869910E-01
  1.06053786E+00  1.06053786E+00  7.50758760E-01  7.50758760E-01  8.07247890E+00
%FLAG ATOMIC_NUMBER                                                             
%FORMAT(10I8)                                                                   
       6       6       6       6       6       6       8       8       1       1
       1       1       1       1       1       1       1       1       1       1
%FLAG MASS                                                                      
%FORMAT(5E16.8)                                                                 
  1.20100000E+01  1.20100000E+01  1.20100000E+01  1.20100000E+01  1.20100000E+01
  1.20100000E+01  1.60000000E+01  1.60000000E+01  1.00800000E+00  1.00800000E+00
  1.00800000E+00  1.00800000E+00  1.00800000E+00  1.00800000E+00  1.00800000E+00
  1.00800000E+00  1.00800000E+00  1.00800000E+00  1.00800000E+00  1.00800000E+00
%FLAG ATOM_TYPE_INDEX                                                           
%FORMAT(10I8)                                                                   
       1       2       2       2       2       2       3       4       5       5
       5       5       5       5       5       5       5       5       5       6
%FLAG NUMBER_EXCLUDED_ATOMS                                                     
%FORMAT(10I8)                                                                   
      10      10      12      11      11      11       4       3       4       3
       2       3       2       3       2       3       2       1       1       1
%FLAG NONBONDED_PARM_INDEX                                                      
%FORMAT(10I8)                                                                   
       1       2       4       7      11      16       2       3       5       8
      12      17       4       5       6       9      13      18       7       8
       9      10      14      19      11      12      13      14      15      20
      16      17      18      19      20      21
%FLAG RESIDUE_LABEL                                                             
%FORMAT(20a4)                                                                   
MOL 
%FLAG RESIDUE_POINTER                                                           
%FORMAT(10I8)                                                                   
       1
%FLAG BOND_FORCE_CONSTANT                                                       
%FORMAT(5E16.8)                                                                 
  2.34850000E+02  5.90600000E+02  3.59270000E+02  2.28890000E+02  3.45250000E+02
  5.35510000E+02
%FLAG BOND_EQUIL_VALUE                                                          
%FORMAT(5E16.8)                                                                 
  1.52700000E+00  1.21900000E+00  1.35560000E+00  1.53540000E+00  1.09620000E+00
  9.72500000E-01
%FLAG ANGLE_FORCE_CONSTANT                                                      
%FORMAT(5E16.8)                                                                 
  6.03600000E+01  4.36300000E+01  6.84600000E+01  5.98700000E+01  4.32700000E+01
  7.64500000E+01  7.74200000E+01  1.02030000E+02  3.58000000E+01
%FLAG ANGLE_EQUIL_VALUE                                                         
%FORMAT(5E16.8)                                                                 
  1.94482122E+00  1.90153704E+00  1.85947458E+00  1.96576518E+00  1.91427794E+00
  2.14501057E+00  1.96768504E+00  2.13087340E+00  1.88024401E+00
%FLAG DIHEDRAL_FORCE_CONSTANT                                                   
%FORMAT(5E16.8)                                                                 
  4.60000000E-01  4.00000000E-02  0.00000000E+00  1.55555556E-01  5.20000000E-01
  1.30000000E-01  1.80000000E+00  6.80000000E-01  2.00000000E-01  4.40000000E-01
  0.00000000E+00  4.03000000E+00  3.66000000E+00  1.90000000E+00  2.30000000E+00
  1.20000000E-01  1.10000000E+00
%FLAG DIHEDRAL_PERIODICITY                                                      
%FORMAT(5E16.8)                                                                 
  1.00000000E+00  2.00000000E+00  3.00000000E+00  3.00000000E+00  3.00000000E+00
  3.00000000E+00  2.00000000E+00  1.00000000E+00  2.00000000E+00  3.00000000E+00
  2.00000000E+00  1.00000000E+00  2.00000000E+00  1.00000000E+00  2.00000000E+00
  3.00000000E+00  2.00000000E+00
%FLAG DIHEDRAL_PHASE                                                            
%FORMAT(5E16.8)                                                                 
  3.14159400E+00  0.00000000E+00  0.00000000E+00  0.00000000E+00  0.00000000E+00
  0.00000000E+00  3.14159400E+00  0.00000000E+00  3.14159400E+00  3.14159400E+00
  3.14159400E+00  0.00000000E+00  3.14159400E+00  0.00000000E+00  3.14159400E+00
  0.00000000E+00  3.14159400E+00
%FLAG SCEE_SCALE_FACTOR                                                         
%FORMAT(5E16.8)                                                                 
  1.20000000E+00  1.20000000E+00  1.20000000E+00  1.20000000E+00  1.20000000E+00
  1.20000000E+00  1.20000000E+00  1.20000000E+00  1.20000000E+00  1.20000000E+00
  1.20000000E+00  1.20000000E+00  1.20000000E+00  1.20000000E+00  1.20000000E+00
  1.20000000E+00  0.00000000E+00
%FLAG SCNB_SCALE_FACTOR                                                         
%FORMAT(5E16.8)                                                                 
  2.00000000E+00  2.00000000E+00  2.00000000E+00  2.00000000E+00  2.00000000E+00
  2.00000000E+00  2.00000000E+00  2.00000000E+00  2.00000000E+00  2.00000000E+00
  2.00000000E+00  2.00000000E+00  2.00000000E+00  2.00000000E+00  2.00000000E+00
  2.00000000E+00  0.00000000E+00
%FLAG SOLTY                                                                     
%FORMAT(5E16.8)                                                                 
  0.00000000E+00  0.00000000E+00  0.00000000E+00  0.00000000E+00  0.00000000E+00
  0.00000000E+00
%FLAG LENNARD_JONES_ACOEF                                                       
%FORMAT(5E16.8)                                                                 
  6.96551276E+05  8.43969952E+05  1.02073671E+06  5.17507491E+05  6.30925504E+05
  3.76435470E+05  5.92438683E+05  7.18991463E+05  4.37717034E+05  5.03152404E+05
  8.12662403E+04  1.00235148E+05  5.68021765E+04  6.80216136E+04  7.94617769E+03
  2.25372434E+02  3.03553352E+02  1.15813907E+02  1.74176419E+02  8.80612241E+00
  1.10360882E-05
%FLAG LENNARD_JONES_BCOEF                                                       
%FORMAT(5E16.8)                                                                 
  5.24668528E+02  5.90251928E+02  6.63431737E+02  4.98871431E+02  5.62969425E+02
  4.69350655E+02  4.76608379E+02  5.36620538E+02  4.51916854E+02  4.32634597E+02
  1.21392023E+02  1.37787728E+02  1.11953944E+02  1.09393126E+02  2.57122925E+01
  4.40751799E+00  5.22789272E+00  3.48534600E+00  3.81654050E+00  5.90150328E-01
  4.55498033E-04
%FLAG BONDS_INC_HYDROGEN                                                        
%FORMAT(10I8)                                                                   
       3      24       5       3      27       5       3      30       5       6
      33       5       6      36       5       9      39       5       9      42
       5      12      45       5      12      48       5      15      51       5
      15      54       5      21      57       6
%FLAG BONDS_WITHOUT_HYDROGEN                                                    
%FORMAT(10I8)                                                                   
       0       6       1       0      18       2       0      21       3       3
       9       4       6      12       4       9      15       4      12      15
       4
%FLAG ANGLES_INC_HYDROGEN                                                       
%FORMAT(10I8)                                                                   
       0       6      33       2       0       6      36       2       0      21
      57       3       3       9      39       5       3       9      42       5
       6      12      45       5       6      12      48       5       9       3
      24       5       9       3      27       5       9       3      30       5
       9      15      51       5       9      15      54       5      12       6
      33       5      12       6      36       5      12      15      51       5
      12      15      54       5      15       9      39       5      15       9
      42       5      15      12      45       5      15      12      48       5
      24       3      27       9      24       3      30       9      27       3
      30       9      33       6      36       9      39       9      42       9
      45      12      48       9      51      15      54       9
%FLAG ANGLES_WITHOUT_HYDROGEN                                                   
%FORMAT(10I8)                                                                   
       0       6      12       1       3       9      15       4       6       0
      18       6       6       0      21       7       6      12      15       4
       9      15      12       4      18       0      21       8
%FLAG DIHEDRALS_INC_HYDROGEN                                                    
%FORMAT(10I8)                                                                   
       0       6      12      45       4       0       6      12      48       4
       3       9      15      51       6       3       9      15      54       6
       6       0      21      57       7       6      12      15      51       6
       6      12      15      54       6       9      15      12      45       6
       9      15      12      48       6      12      15       9      39       6
      12      15       9      42       6      15       9       3      24       6
      15       9       3      27       6      15       9       3      30       6
      15      12       6      33       6      15      12       6      36       6
      18       0       6      33      12      18       0      -6      33      13
      18       0       6      36      12      18       0      -6      36      13
      18       0      21      57      14      18       0     -21      57      15
      21       0       6      33      11      21       0       6      36      11
      24       3       9      39      16      24       3       9      42      16
      27       3       9      39      16      27       3       9      42      16
      30       3       9      39      16      30       3       9      42      16
      33       6      12      45      16      33       6      12      48      16
      36       6      12      45      16      36       6      12      48      16
      39       9      15      51      16      39       9      15      54      16
      42       9      15      51      16      42       9      15      54      16
      45      12      15      51      16      45      12      15      54      16
      48      12      15      51      16      48      12      15      54      16
%FLAG DIHEDRALS_WITHOUT_HYDROGEN                                                
%FORMAT(10I8)                                                                   
       0       6      12      15       1       0       6     -12      15       2
       0       6     -12      15       3       3       9      15      12       5
       6      12      15       9       5      18       0       6      12       8
      18       0      -6      12       9      18       0      -6      12      10
      21       0       6      12      11      21       0     -18      -6      17
%FLAG EXCLUDED_ATOMS_LIST                                                       
%FORMAT(10I8)                                                                   
       3       5       6       7       8      12      13      16      17      20
       4       5       6       9      10      11      14      15      18      19
       4       5       6       7       8      12      13      16      17      18
      19      20       5       6       9      10      11      14      15      16
      17      18      19       6       7       8      12      13      14      15
      16      17      18      19       9      10      11      12      13      14
      15      16      17      18      19       8      12      13      20      12
      13      20      10      11      14      15      11      14      15      14
      15      13      16      17      16      17      15      18      19      18
      19      17      18      19      18      19      19       0       0
%FLAG HBOND_ACOEF                                                               
%FORMAT(5E16.8)                                                                 

%FLAG HBOND_BCOEF                                                               
%FORMAT(5E16.8)                                                                 

%FLAG HBCUT                                                                     
%FORMAT(5E16.8)                                                                 

%FLAG AMBER_ATOM_TYPE                                                           
%FORMAT(20a4)                                                                   
c   c3  c3  c3  c3  c3  o   oh  hc  hc  hc  hc  hc  hc  hc  hc  hc  hc  hc  ho  
%FLAG TREE_CHAIN_CLASSIFICATION                                                 
%FORMAT(20a4)                                                                   
BLA BLA BLA BLA BLA BLA BLA BLA BLA BLA BLA BLA BLA BLA BLA BLA BLA BLA BLA BLA 
%FLAG JOIN_ARRAY                                                                
%FORMAT(10I8)                                                                   
       0       0       0       0       0       0       0       0       0       0
       0       0       0       0       0       0       0       0       0       0
%FLAG IROTAT                                                                    
%FORMAT(10I8)                                                                   
       0       0       0       0       0       0       0       0       0       0
       0       0       0       0       0       0       0       0       0       0
%FLAG RADIUS_SET                                                                
%FORMAT(1a80)                                                                   
modified Bondi radii (mbondi)                                                   
%FLAG RADII                                                                     
%FORMAT(5E16.8)                                                                 
  1.70000000E+00  1.70000000E+00  1.70000000E+00  1.70000000E+00  1.70000000E+00
  1.70000000E+00  1.50000000E+00  1.50000000E+00  1.30000000E+00  1.30000000E+00
  1.30000000E+00  1.30000000E+00  1.30000000E+00  1.30000000E+00  1.30000000E+00
  1.30000000E+00  1.30000000E+00  1.30000000E+00  1.30000000E+00  8.00000000E-01
%FLAG SCREEN                                                                    
%FORMAT(5E16.8)                                                                 
  7.20000000E-01  7.20000000E-01  7.20000000E-01  7.20000000E-01  7.20000000E-01
  7.20000000E-01  8.50000000E-01  8.50000000E-01  8.50000000E-01  8.50000000E-01
  8.50000000E-01  8.50000000E-01  8.50000000E-01  8.50000000E-01  8.50000000E-01
  8.50000000E-01  8.50000000E-01  8.50000000E-01  8.50000000E-01  8.50000000E-01
%FLAG IPOL                                                                      
%FORMAT(1I8)                                                                    
       0
