; mobley_1735893_GMX_OPLS.top created by acpype (v: 2023.10.27) on Thu May 21 00:04:00 2026

; Include forcefield parameters
#include "ffoplsaa.itp"

; Include mobley_1735893_GMX.itp topology
#include "mobley_1735893_GMX.itp"

; Ligand position restraints
#ifdef POSRES_LIG
#include "posre_mobley_1735893.itp"
#endif

[ system ]
 mobley_1735893

[ molecules ]
; Compound        nmols
 mobley_1735893   1     
