mobley_1735893_GMX.gro created by acpype (v: 2023.10.27) on Thu May 21 00:04:00 2026
 20
    1  MOL   C1    1   0.188  -0.243  -0.451
    1  MOL   C2    2  -0.003   0.272  -0.119
    1  MOL   C3    3   0.212  -0.121  -0.365
    1  MOL   C4    4  -0.028   0.147  -0.202
    1  MOL   C5    5   0.080  -0.052  -0.327
    1  MOL   C6    6   0.100   0.077  -0.248
    1  MOL   O1    7   0.079  -0.286  -0.486
    1  MOL   O2    8   0.306  -0.302  -0.486
    1  MOL   H1    9  -0.098   0.311  -0.081
    1  MOL   H2   10   0.061   0.250  -0.033
    1  MOL   H3   11   0.044   0.351  -0.178
    1  MOL   H4   12   0.265  -0.153  -0.275
    1  MOL   H5   13   0.275  -0.051  -0.421
    1  MOL   H6   14  -0.086   0.076  -0.142
    1  MOL   H7   15  -0.091   0.172  -0.288
    1  MOL   H8   16   0.017  -0.122  -0.271
    1  MOL   H9   17   0.025  -0.028  -0.419
    1  MOL  H10   18   0.159   0.147  -0.309
    1  MOL  H11   19   0.161   0.055  -0.159
    1  MOL  H12   20   0.297  -0.382  -0.542
    8.07000    14.65600    10.17800
