hexanoic_acid
    20
   1.8840000  -2.4290000  -4.5140000  -0.0300000   2.7190000  -1.1890000
   2.1160000  -1.2090000  -3.6520000  -0.2810000   1.4700000  -2.0190000
   0.8040000  -0.5230000  -3.2730000   1.0010000   0.7710000  -2.4770000
   0.7920000  -2.8560000  -4.8620000   3.0580000  -3.0190000  -4.8630000
  -0.9770000   3.1140000  -0.8090000   0.6140000   2.4980000  -0.3320000
   0.4410000   3.5070000  -1.7840000   2.6480000  -1.5330000  -2.7520000
   2.7460000  -0.5090000  -4.2120000  -0.8620000   0.7610000  -1.4160000
  -0.9070000   1.7230000  -2.8820000   0.1670000  -1.2180000  -2.7120000
   0.2470000  -0.2780000  -4.1870000   1.5850000   1.4680000  -3.0910000
   1.6130000   0.5540000  -1.5930000   2.9670000  -3.8210000  -5.4210000
