; mobley_1735893_GMX_OPLS.itp created by acpype (v: 2023.10.27) on Thu May 21 00:04:00 2026

; For OPLS atomtypes manual fine tuning
; AC_at:OPLS_at:OPLScode: Possible_Alternatives (see ffoplsaa.atp and ffoplsaanb.itp)
; c:C:opls_235: ['271']
; c3:CT:opls_135: ['136', '137', '149', '157', '158', '206', '209', '210', '223B', '224B', '245', '246', '274', '283', '284', '285', '292', '292B', '293B', '296', '307', '308', '505']
; o:O:opls_236: ['272']
; oh:OH:opls_154: ['167']
; hc:HC:opls_140: []
; ho:HO:opls_155: ['168']

[ moleculetype ]
;name            nrexcl
 mobley_1735893   3

[ atoms ]
;   nr  type  resi  res  atom  cgnr     charge      mass       ; qtot   bond_type
     1 opls_235     1   MOL    C1    1     0.635101     12.01100 ; qtot  0.635  C   
     2 opls_135     1   MOL    C2    2    -0.093100     12.01100 ; qtot  0.542  CT  
     3 opls_135     1   MOL    C3    3    -0.126400     12.01100 ; qtot  0.416  CT  
     4 opls_135     1   MOL    C4    4    -0.079400     12.01100 ; qtot  0.336  CT  
     5 opls_135     1   MOL    C5    5    -0.080400     12.01100 ; qtot  0.256  CT  
     6 opls_135     1   MOL    C6    6    -0.079400     12.01100 ; qtot  0.176  CT  
     7 opls_236     1   MOL    O1    7    -0.551000     15.99940 ; qtot -0.375  O   
     8 opls_154     1   MOL    O2    8    -0.612100     15.99940 ; qtot -0.987  OH  
     9 opls_140     1   MOL    H1    9     0.034033      1.00800 ; qtot -0.953  HC  
    10 opls_140     1   MOL    H2   10     0.034033      1.00800 ; qtot -0.919  HC  
    11 opls_140     1   MOL    H3   11     0.034033      1.00800 ; qtot -0.885  HC  
    12 opls_140     1   MOL    H4   12     0.079700      1.00800 ; qtot -0.805  HC  
    13 opls_140     1   MOL    H5   13     0.079700      1.00800 ; qtot -0.725  HC  
    14 opls_140     1   MOL    H6   14     0.041700      1.00800 ; qtot -0.683  HC  
    15 opls_140     1   MOL    H7   15     0.041700      1.00800 ; qtot -0.642  HC  
    16 opls_140     1   MOL    H8   16     0.058200      1.00800 ; qtot -0.584  HC  
    17 opls_140     1   MOL    H9   17     0.058200      1.00800 ; qtot -0.525  HC  
    18 opls_140     1   MOL   H10   18     0.041200      1.00800 ; qtot -0.484  HC  
    19 opls_140     1   MOL   H11   19     0.041200      1.00800 ; qtot -0.443  HC  
    20 opls_155     1   MOL   H12   20     0.443000      1.00800 ; qtot  0.000  HO  

[ bonds ]
;   ai     aj funct   r             k
     1      3   1 ;    1.5270e-01    1.9652e+05 ;     C1 - C3          C - CT    
     1      7   1 ;    1.2190e-01    4.9421e+05 ;     C1 - O1          C - O     
     1      8   1 ;    1.3556e-01    3.0064e+05 ;     C1 - O2          C - OH    
     2      4   1 ;    1.5354e-01    1.9154e+05 ;     C2 - C4         CT - CT    
     2      9   1 ;    1.0962e-01    2.8891e+05 ;     C2 - H1         CT - HC    
     2     10   1 ;    1.0962e-01    2.8891e+05 ;     C2 - H2         CT - HC    
     2     11   1 ;    1.0962e-01    2.8891e+05 ;     C2 - H3         CT - HC    
     3      5   1 ;    1.5354e-01    1.9154e+05 ;     C3 - C5         CT - CT    
     3     12   1 ;    1.0962e-01    2.8891e+05 ;     C3 - H4         CT - HC    
     3     13   1 ;    1.0962e-01    2.8891e+05 ;     C3 - H5         CT - HC    
     4      6   1 ;    1.5354e-01    1.9154e+05 ;     C4 - C6         CT - CT    
     4     14   1 ;    1.0962e-01    2.8891e+05 ;     C4 - H6         CT - HC    
     4     15   1 ;    1.0962e-01    2.8891e+05 ;     C4 - H7         CT - HC    
     5      6   1 ;    1.5354e-01    1.9154e+05 ;     C5 - C6         CT - CT    
     5     16   1 ;    1.0962e-01    2.8891e+05 ;     C5 - H8         CT - HC    
     5     17   1 ;    1.0962e-01    2.8891e+05 ;     C5 - H9         CT - HC    
     6     18   1 ;    1.0962e-01    2.8891e+05 ;     C6 - H10        CT - HC    
     6     19   1 ;    1.0962e-01    2.8891e+05 ;     C6 - H11        CT - HC    
     8     20   1 ;    9.7250e-02    4.4811e+05 ;     O2 - H12        OH - HO    

[ pairs ]
;   ai     aj    funct
     1      6      1 ;     C1 - C6    
     1     16      1 ;     C1 - H8    
     1     17      1 ;     C1 - H9    
     2      5      1 ;     C2 - C5    
     2     18      1 ;     C2 - H10   
     2     19      1 ;     C2 - H11   
     3      4      1 ;     C3 - C4    
     3     18      1 ;     C3 - H10   
     3     19      1 ;     C3 - H11   
     3     20      1 ;     C3 - H12   
     4     16      1 ;     C4 - H8    
     4     17      1 ;     C4 - H9    
     5     14      1 ;     C5 - H6    
     5     15      1 ;     C5 - H7    
     6      9      1 ;     C6 - H1    
     6     10      1 ;     C6 - H2    
     6     11      1 ;     C6 - H3    
     6     12      1 ;     C6 - H4    
     6     13      1 ;     C6 - H5    
     7      5      1 ;     O1 - C5    
     7     12      1 ;     O1 - H4    
     7     13      1 ;     O1 - H5    
     7     20      1 ;     O1 - H12   
     8      5      1 ;     O2 - C5    
     8     12      1 ;     O2 - H4    
     8     13      1 ;     O2 - H5    
     9     14      1 ;     H1 - H6    
     9     15      1 ;     H1 - H7    
    10     14      1 ;     H2 - H6    
    10     15      1 ;     H2 - H7    
    11     14      1 ;     H3 - H6    
    11     15      1 ;     H3 - H7    
    12     16      1 ;     H4 - H8    
    12     17      1 ;     H4 - H9    
    13     16      1 ;     H5 - H8    
    13     17      1 ;     H5 - H9    
    14     18      1 ;     H6 - H10   
    14     19      1 ;     H6 - H11   
    15     18      1 ;     H7 - H10   
    15     19      1 ;     H7 - H11   
    16     18      1 ;     H8 - H10   
    16     19      1 ;     H8 - H11   
    17     18      1 ;     H9 - H10   
    17     19      1 ;     H9 - H11   

[ angles ]
;   ai     aj     ak    funct   theta         cth
     1      3      5      1 ;    1.1143e+02    5.0509e+02 ;     C1 - C3   - C5        C -   CT - CT  
     1      3     12      1 ;    1.0895e+02    3.6510e+02 ;     C1 - C3   - H4        C -   CT - HC  
     1      3     13      1 ;    1.0895e+02    3.6510e+02 ;     C1 - C3   - H5        C -   CT - HC  
     1      8     20      1 ;    1.0654e+02    5.7287e+02 ;     C1 - O2   - H12       C -   OH - HO  
     2      4      6      1 ;    1.1263e+02    5.0099e+02 ;     C2 - C4   - C6       CT -   CT - CT  
     2      4     14      1 ;    1.0968e+02    3.6208e+02 ;     C2 - C4   - H6       CT -   CT - HC  
     2      4     15      1 ;    1.0968e+02    3.6208e+02 ;     C2 - C4   - H7       CT -   CT - HC  
     3      1      7      1 ;    1.2290e+02    6.3973e+02 ;     C3 - C1   - O1       CT -    C - O   
     3      1      8      1 ;    1.1274e+02    6.4785e+02 ;     C3 - C1   - O2       CT -    C - OH  
     3      5      6      1 ;    1.1263e+02    5.0099e+02 ;     C3 - C5   - C6       CT -   CT - CT  
     3      5     16      1 ;    1.0968e+02    3.6208e+02 ;     C3 - C5   - H8       CT -   CT - HC  
     3      5     17      1 ;    1.0968e+02    3.6208e+02 ;     C3 - C5   - H9       CT -   CT - HC  
     4      2      9      1 ;    1.0968e+02    3.6208e+02 ;     C4 - C2   - H1       CT -   CT - HC  
     4      2     10      1 ;    1.0968e+02    3.6208e+02 ;     C4 - C2   - H2       CT -   CT - HC  
     4      2     11      1 ;    1.0968e+02    3.6208e+02 ;     C4 - C2   - H3       CT -   CT - HC  
     4      6      5      1 ;    1.1263e+02    5.0099e+02 ;     C4 - C6   - C5       CT -   CT - CT  
     4      6     18      1 ;    1.0968e+02    3.6208e+02 ;     C4 - C6   - H10      CT -   CT - HC  
     4      6     19      1 ;    1.0968e+02    3.6208e+02 ;     C4 - C6   - H11      CT -   CT - HC  
     5      3     12      1 ;    1.0968e+02    3.6208e+02 ;     C5 - C3   - H4       CT -   CT - HC  
     5      3     13      1 ;    1.0968e+02    3.6208e+02 ;     C5 - C3   - H5       CT -   CT - HC  
     5      6     18      1 ;    1.0968e+02    3.6208e+02 ;     C5 - C6   - H10      CT -   CT - HC  
     5      6     19      1 ;    1.0968e+02    3.6208e+02 ;     C5 - C6   - H11      CT -   CT - HC  
     6      4     14      1 ;    1.0968e+02    3.6208e+02 ;     C6 - C4   - H6       CT -   CT - HC  
     6      4     15      1 ;    1.0968e+02    3.6208e+02 ;     C6 - C4   - H7       CT -   CT - HC  
     6      5     16      1 ;    1.0968e+02    3.6208e+02 ;     C6 - C5   - H8       CT -   CT - HC  
     6      5     17      1 ;    1.0968e+02    3.6208e+02 ;     C6 - C5   - H9       CT -   CT - HC  
     7      1      8      1 ;    1.2209e+02    8.5379e+02 ;     O1 - C1   - O2        O -    C - OH  
     9      2     10      1 ;    1.0773e+02    2.9957e+02 ;     H1 - C2   - H2       HC -   CT - HC  
     9      2     11      1 ;    1.0773e+02    2.9957e+02 ;     H1 - C2   - H3       HC -   CT - HC  
    10      2     11      1 ;    1.0773e+02    2.9957e+02 ;     H2 - C2   - H3       HC -   CT - HC  
    12      3     13      1 ;    1.0773e+02    2.9957e+02 ;     H4 - C3   - H5       HC -   CT - HC  
    14      4     15      1 ;    1.0773e+02    2.9957e+02 ;     H6 - C4   - H7       HC -   CT - HC  
    16      5     17      1 ;    1.0773e+02    2.9957e+02 ;     H8 - C5   - H9       HC -   CT - HC  
    18      6     19      1 ;    1.0773e+02    2.9957e+02 ;    H10 - C6   - H11      HC -   CT - HC  

[ dihedrals ] ; propers
; for gromacs 4.5 or higher, using funct 9
;    i      j      k      l   func   phase     kd      pn
     1      3      5      6      9 ;     0.00   0.00000   0 ;     C1-    C3-    C5-    C6
     1      3      5      6      9 ;     0.00   0.16736   2 ;     C1-    C3-    C5-    C6
     1      3      5      6      9 ;   180.00   1.92464   1 ;     C1-    C3-    C5-    C6
     1      3      5     16      9 ;     0.00   0.65084   3 ;     C1-    C3-    C5-    H8
     1      3      5     17      9 ;     0.00   0.65084   3 ;     C1-    C3-    C5-    H9
     2      4      6      5      9 ;     0.00   2.17568   3 ;     C2-    C4-    C6-    C5
     2      4      6     18      9 ;     0.00   0.54392   3 ;     C2-    C4-    C6-   H10
     2      4      6     19      9 ;     0.00   0.54392   3 ;     C2-    C4-    C6-   H11
     3      1      8     20      9 ;   180.00   7.53120   2 ;     C3-    C1-    O2-   H12
     3      5      6      4      9 ;     0.00   2.17568   3 ;     C3-    C5-    C6-    C4
     3      5      6     18      9 ;     0.00   0.54392   3 ;     C3-    C5-    C6-   H10
     3      5      6     19      9 ;     0.00   0.54392   3 ;     C3-    C5-    C6-   H11
     4      6      5     16      9 ;     0.00   0.54392   3 ;     C4-    C6-    C5-    H8
     4      6      5     17      9 ;     0.00   0.54392   3 ;     C4-    C6-    C5-    H9
     5      6      4     14      9 ;     0.00   0.54392   3 ;     C5-    C6-    C4-    H6
     5      6      4     15      9 ;     0.00   0.54392   3 ;     C5-    C6-    C4-    H7
     6      4      2      9      9 ;     0.00   0.54392   3 ;     C6-    C4-    C2-    H1
     6      4      2     10      9 ;     0.00   0.54392   3 ;     C6-    C4-    C2-    H2
     6      4      2     11      9 ;     0.00   0.54392   3 ;     C6-    C4-    C2-    H3
     6      5      3     12      9 ;     0.00   0.54392   3 ;     C6-    C5-    C3-    H4
     6      5      3     13      9 ;     0.00   0.54392   3 ;     C6-    C5-    C3-    H5
     7      1      3      5      9 ;     0.00   2.84512   1 ;     O1-    C1-    C3-    C5
     7      1      3      5      9 ;   180.00   0.83680   2 ;     O1-    C1-    C3-    C5
     7      1      3      5      9 ;   180.00   1.84096   3 ;     O1-    C1-    C3-    C5
     7      1      3     12      9 ;     0.00  16.86152   1 ;     O1-    C1-    C3-    H4
     7      1      3     12      9 ;   180.00  15.31344   2 ;     O1-    C1-    C3-    H4
     7      1      3     13      9 ;     0.00  16.86152   1 ;     O1-    C1-    C3-    H5
     7      1      3     13      9 ;   180.00  15.31344   2 ;     O1-    C1-    C3-    H5
     7      1      8     20      9 ;     0.00   7.94960   1 ;     O1-    C1-    O2-   H12
     7      1      8     20      9 ;   180.00   9.62320   2 ;     O1-    C1-    O2-   H12
     8      1      3      5      9 ;   180.00   0.00000   2 ;     O2-    C1-    C3-    C5
     8      1      3     12      9 ;   180.00   0.00000   2 ;     O2-    C1-    C3-    H4
     8      1      3     13      9 ;   180.00   0.00000   2 ;     O2-    C1-    C3-    H5
     9      2      4     14      9 ;     0.00   0.50208   3 ;     H1-    C2-    C4-    H6
     9      2      4     15      9 ;     0.00   0.50208   3 ;     H1-    C2-    C4-    H7
    10      2      4     14      9 ;     0.00   0.50208   3 ;     H2-    C2-    C4-    H6
    10      2      4     15      9 ;     0.00   0.50208   3 ;     H2-    C2-    C4-    H7
    11      2      4     14      9 ;     0.00   0.50208   3 ;     H3-    C2-    C4-    H6
    11      2      4     15      9 ;     0.00   0.50208   3 ;     H3-    C2-    C4-    H7
    12      3      5     16      9 ;     0.00   0.50208   3 ;     H4-    C3-    C5-    H8
    12      3      5     17      9 ;     0.00   0.50208   3 ;     H4-    C3-    C5-    H9
    13      3      5     16      9 ;     0.00   0.50208   3 ;     H5-    C3-    C5-    H8
    13      3      5     17      9 ;     0.00   0.50208   3 ;     H5-    C3-    C5-    H9
    14      4      6     18      9 ;     0.00   0.50208   3 ;     H6-    C4-    C6-   H10
    14      4      6     19      9 ;     0.00   0.50208   3 ;     H6-    C4-    C6-   H11
    15      4      6     18      9 ;     0.00   0.50208   3 ;     H7-    C4-    C6-   H10
    15      4      6     19      9 ;     0.00   0.50208   3 ;     H7-    C4-    C6-   H11
    16      5      6     18      9 ;     0.00   0.50208   3 ;     H8-    C5-    C6-   H10
    16      5      6     19      9 ;     0.00   0.50208   3 ;     H8-    C5-    C6-   H11
    17      5      6     18      9 ;     0.00   0.50208   3 ;     H9-    C5-    C6-   H10
    17      5      6     19      9 ;     0.00   0.50208   3 ;     H9-    C5-    C6-   H11

[ dihedrals ] ; impropers
; treated as propers in GROMACS to use correct AMBER analytical function
;    i      j      k      l   func   phase     kd      pn
     8      1      7      3      4 ;   180.00   4.60240   2 ;     O2-    C1-    O1-    C3
