; mobley_7912193_GMX_OPLS.itp created by acpype (v: 2023.10.27) on Thu May 21 00:02:07 2026

; For OPLS atomtypes manual fine tuning
; AC_at:OPLS_at:OPLScode: Possible_Alternatives (see ffoplsaa.atp and ffoplsaanb.itp)
; ca:CA:opls_145: ['166', '501', '502']
; c:C:opls_235: ['271']
; c3:CT:opls_135: ['136', '137', '149', '157', '158', '206', '209', '210', '223B', '224B', '245', '246', '274', '283', '284', '285', '292', '292B', '293B', '296', '307', '308', '505']
; o:O:opls_236: ['272']
; oh:OH:opls_154: ['167']
; os:x:opls_x: []
; ha:HA:opls_146: []
; hc:HC:opls_140: []
; h1:HC:opls_140: []
; ho:HO:opls_155: ['168']

[ moleculetype ]
;name            nrexcl
 mobley_7912193   3

[ atoms ]
;   nr  type  resi  res  atom  cgnr     charge      mass       ; qtot   bond_type
     1 opls_145     1   MOL    C1    1    -0.034000     12.01100 ; qtot -0.034  CA  
     2 opls_145     1   MOL    C2    2    -0.034000     12.01100 ; qtot -0.068  CA  
     3 opls_145     1   MOL    C3    3    -0.205000     12.01100 ; qtot -0.273  CA  
     4 opls_145     1   MOL    C4    4    -0.205000     12.01100 ; qtot -0.478  CA  
     5 opls_145     1   MOL    C5    5    -0.173600     12.01100 ; qtot -0.652  CA  
     6 opls_145     1   MOL    C6    6     0.158100     12.01100 ; qtot -0.493  CA  
     7 opls_235     1   MOL    C7    7     0.650701     12.01100 ; qtot  0.157  C   
     8 opls_135     1   MOL    C8    8    -0.092100     12.01100 ; qtot  0.065  CT  
     9 opls_135     1   MOL    C9    9    -0.079400     12.01100 ; qtot -0.014  CT  
    10 opls_135     1   MOL   C10   10    -0.086400     12.01100 ; qtot -0.101  CT  
    11 opls_135     1   MOL   C11   11     0.141400     12.01100 ; qtot  0.041  CT  
    12 opls_236     1   MOL    O1   12    -0.550000     15.99940 ; qtot -0.509  O   
    13 opls_154     1   MOL    O2   13    -0.491100     15.99940 ; qtot -1.000  OH  
    14 opls_x     1   MOL    O3   14    -0.443900      0.00000 ; qtot -1.444  x   
    15 opls_146     1   MOL    H1   15     0.159000      1.00800 ; qtot -1.285  HA  
    16 opls_146     1   MOL    H2   16     0.159000      1.00800 ; qtot -1.126  HA  
    17 opls_146     1   MOL    H3   17     0.149000      1.00800 ; qtot -0.977  HA  
    18 opls_146     1   MOL    H4   18     0.149000      1.00800 ; qtot -0.828  HA  
    19 opls_140     1   MOL    H5   19     0.035033      1.00800 ; qtot -0.793  HC  
    20 opls_140     1   MOL    H6   20     0.035033      1.00800 ; qtot -0.758  HC  
    21 opls_140     1   MOL    H7   21     0.035033      1.00800 ; qtot -0.723  HC  
    22 opls_140     1   MOL    H8   22     0.042700      1.00800 ; qtot -0.680  HC  
    23 opls_140     1   MOL    H9   23     0.042700      1.00800 ; qtot -0.638  HC  
    24 opls_140     1   MOL   H10   24     0.053700      1.00800 ; qtot -0.584  HC  
    25 opls_140     1   MOL   H11   25     0.053700      1.00800 ; qtot -0.530  HC  
    26 opls_140     1   MOL   H12   26     0.053200      1.00800 ; qtot -0.477  HC  
    27 opls_140     1   MOL   H13   27     0.053200      1.00800 ; qtot -0.424  HC  
    28 opls_155     1   MOL   H14   28     0.424000      1.00800 ; qtot -0.000  HO  

[ bonds ]
;   ai     aj funct   r             k
     1      3   1 ;    1.3986e-01    2.9644e+05 ;     C1 - C3         CA - CA    
     1      5   1 ;    1.3986e-01    2.9644e+05 ;     C1 - C5         CA - CA    
     1     15   1 ;    1.0860e-01    3.0183e+05 ;     C1 - H1         CA - HA    
     2      4   1 ;    1.3986e-01    2.9644e+05 ;     C2 - C4         CA - CA    
     2      5   1 ;    1.3986e-01    2.9644e+05 ;     C2 - C5         CA - CA    
     2     16   1 ;    1.0860e-01    3.0183e+05 ;     C2 - H2         CA - HA    
     3      6   1 ;    1.3986e-01    2.9644e+05 ;     C3 - C6         CA - CA    
     3     17   1 ;    1.0860e-01    3.0183e+05 ;     C3 - H3         CA - HA    
     4      6   1 ;    1.3986e-01    2.9644e+05 ;     C4 - C6         CA - CA    
     4     18   1 ;    1.0860e-01    3.0183e+05 ;     C4 - H4         CA - HA    
     5      7   1 ;    1.4907e-01    2.1994e+05 ;     C5 - C7         CA - C     
     6     13   1 ;    1.3644e-01    2.9167e+05 ;     C6 - O2         CA - OH    
     7     12   1 ;    1.2190e-01    4.9421e+05 ;     C7 - O1          C - O     
     7     14   1 ;    1.3621e-01    2.9398e+05 ;     C7 - O3          C - x     
     8      9   1 ;    1.5354e-01    1.9154e+05 ;     C8 - C9         CT - CT    
     8     19   1 ;    1.0962e-01    2.8891e+05 ;     C8 - H5         CT - HC    
     8     20   1 ;    1.0962e-01    2.8891e+05 ;     C8 - H6         CT - HC    
     8     21   1 ;    1.0962e-01    2.8891e+05 ;     C8 - H7         CT - HC    
     9     10   1 ;    1.5354e-01    1.9154e+05 ;     C9 - C10        CT - CT    
     9     22   1 ;    1.0962e-01    2.8891e+05 ;     C9 - H8         CT - HC    
     9     23   1 ;    1.0962e-01    2.8891e+05 ;     C9 - H9         CT - HC    
    10     11   1 ;    1.5354e-01    1.9154e+05 ;    C10 - C11        CT - CT    
    10     24   1 ;    1.0962e-01    2.8891e+05 ;    C10 - H10        CT - HC    
    10     25   1 ;    1.0962e-01    2.8891e+05 ;    C10 - H11        CT - HC    
    11     14   1 ;    1.4273e-01    2.3620e+05 ;    C11 - O3         CT - x     
    11     26   1 ;    1.0969e-01    2.8804e+05 ;    C11 - H12        CT - HC    
    11     27   1 ;    1.0969e-01    2.8804e+05 ;    C11 - H13        CT - HC    
    13     28   1 ;    9.7250e-02    4.4811e+05 ;     O2 - H14        OH - HO    

[ pairs ]
;   ai     aj    funct
     1      4      1 ;     C1 - C4    
     1     12      1 ;     C1 - O1    
     1     13      1 ;     C1 - O2    
     1     14      1 ;     C1 - O3    
     1     16      1 ;     C1 - H2    
     2      3      1 ;     C2 - C3    
     2     12      1 ;     C2 - O1    
     2     13      1 ;     C2 - O2    
     2     14      1 ;     C2 - O3    
     3      7      1 ;     C3 - C7    
     3     18      1 ;     C3 - H4    
     3     28      1 ;     C3 - H14   
     4      7      1 ;     C4 - C7    
     4     17      1 ;     C4 - H3    
     4     28      1 ;     C4 - H14   
     5      6      1 ;     C5 - C6    
     5     11      1 ;     C5 - C11   
     5     17      1 ;     C5 - H3    
     5     18      1 ;     C5 - H4    
     6     16      1 ;     C6 - H2    
     7     10      1 ;     C7 - C10   
     7     16      1 ;     C7 - H2    
     7     26      1 ;     C7 - H12   
     7     27      1 ;     C7 - H13   
     8     11      1 ;     C8 - C11   
     8     24      1 ;     C8 - H10   
     8     25      1 ;     C8 - H11   
     9     14      1 ;     C9 - O3    
     9     26      1 ;     C9 - H12   
     9     27      1 ;     C9 - H13   
    10     19      1 ;    C10 - H5    
    10     20      1 ;    C10 - H6    
    10     21      1 ;    C10 - H7    
    11     12      1 ;    C11 - O1    
    11     22      1 ;    C11 - H8    
    11     23      1 ;    C11 - H9    
    13     17      1 ;     O2 - H3    
    13     18      1 ;     O2 - H4    
    14     24      1 ;     O3 - H10   
    14     25      1 ;     O3 - H11   
    15      2      1 ;     H1 - C2    
    15      6      1 ;     H1 - C6    
    15      7      1 ;     H1 - C7    
    15     17      1 ;     H1 - H3    
    16     18      1 ;     H2 - H4    
    19     22      1 ;     H5 - H8    
    19     23      1 ;     H5 - H9    
    20     22      1 ;     H6 - H8    
    20     23      1 ;     H6 - H9    
    21     22      1 ;     H7 - H8    
    21     23      1 ;     H7 - H9    
    22     24      1 ;     H8 - H10   
    22     25      1 ;     H8 - H11   
    23     24      1 ;     H9 - H10   
    23     25      1 ;     H9 - H11   
    24     26      1 ;    H10 - H12   
    24     27      1 ;    H10 - H13   
    25     26      1 ;    H11 - H12   
    25     27      1 ;    H11 - H13   

[ angles ]
;   ai     aj     ak    funct   theta         cth
     1      3      6      1 ;    1.2002e+02    5.3279e+02 ;     C1 - C3   - C6       CA -   CA - CA  
     1      3     17      1 ;    1.1988e+02    3.7572e+02 ;     C1 - C3   - H3       CA -   CA - HA  
     1      5      2      1 ;    1.2002e+02    5.3279e+02 ;     C1 - C5   - C2       CA -   CA - CA  
     1      5      7      1 ;    1.2033e+02    5.1413e+02 ;     C1 - C5   - C7       CA -   CA - C   
     2      4      6      1 ;    1.2002e+02    5.3279e+02 ;     C2 - C4   - C6       CA -   CA - CA  
     2      4     18      1 ;    1.1988e+02    3.7572e+02 ;     C2 - C4   - H4       CA -   CA - HA  
     2      5      7      1 ;    1.2033e+02    5.1413e+02 ;     C2 - C5   - C7       CA -   CA - C   
     3      1      5      1 ;    1.2002e+02    5.3279e+02 ;     C3 - C1   - C5       CA -   CA - CA  
     3      1     15      1 ;    1.1988e+02    3.7572e+02 ;     C3 - C1   - H1       CA -   CA - HA  
     3      6      4      1 ;    1.2002e+02    5.3279e+02 ;     C3 - C6   - C4       CA -   CA - CA  
     3      6     13      1 ;    1.1990e+02    6.5990e+02 ;     C3 - C6   - O2       CA -   CA - OH  
     4      2      5      1 ;    1.2002e+02    5.3279e+02 ;     C4 - C2   - C5       CA -   CA - CA  
     4      2     16      1 ;    1.1988e+02    3.7572e+02 ;     C4 - C2   - H2       CA -   CA - HA  
     4      6     13      1 ;    1.1990e+02    6.5990e+02 ;     C4 - C6   - O2       CA -   CA - OH  
     5      1     15      1 ;    1.1988e+02    3.7572e+02 ;     C5 - C1   - H1       CA -   CA - HA  
     5      2     16      1 ;    1.1988e+02    3.7572e+02 ;     C5 - C2   - H2       CA -   CA - HA  
     5      7     12      1 ;    1.2260e+02    6.5237e+02 ;     C5 - C7   - O1       CA -    C - O   
     5      7     14      1 ;    1.1241e+02    6.5756e+02 ;     C5 - C7   - O3       CA -    C - x   
     6      3     17      1 ;    1.1988e+02    3.7572e+02 ;     C6 - C3   - H3       CA -   CA - HA  
     6      4     18      1 ;    1.1988e+02    3.7572e+02 ;     C6 - C4   - H4       CA -   CA - HA  
     6     13     28      1 ;    1.0858e+02    5.6409e+02 ;     C6 - O2   - H14      CA -   OH - HO  
     7     14     11      1 ;    1.1582e+02    7.4835e+02 ;     C7 - O3   - C11       C -    x - CT  
     8      9     10      1 ;    1.1263e+02    5.0099e+02 ;     C8 - C9   - C10      CT -   CT - CT  
     8      9     22      1 ;    1.0968e+02    3.6208e+02 ;     C8 - C9   - H8       CT -   CT - HC  
     8      9     23      1 ;    1.0968e+02    3.6208e+02 ;     C8 - C9   - H9       CT -   CT - HC  
     9      8     19      1 ;    1.0968e+02    3.6208e+02 ;     C9 - C8   - H5       CT -   CT - HC  
     9      8     20      1 ;    1.0968e+02    3.6208e+02 ;     C9 - C8   - H6       CT -   CT - HC  
     9      8     21      1 ;    1.0968e+02    3.6208e+02 ;     C9 - C8   - H7       CT -   CT - HC  
     9     10     11      1 ;    1.1263e+02    5.0099e+02 ;     C9 - C10  - C11      CT -   CT - CT  
     9     10     24      1 ;    1.0968e+02    3.6208e+02 ;     C9 - C10  - H10      CT -   CT - HC  
     9     10     25      1 ;    1.0968e+02    3.6208e+02 ;     C9 - C10  - H11      CT -   CT - HC  
    10      9     22      1 ;    1.0968e+02    3.6208e+02 ;    C10 - C9   - H8       CT -   CT - HC  
    10      9     23      1 ;    1.0968e+02    3.6208e+02 ;    C10 - C9   - H9       CT -   CT - HC  
    10     11     14      1 ;    1.0762e+02    6.4802e+02 ;    C10 - C11  - O3       CT -   CT - x   
    10     11     26      1 ;    1.0959e+02    3.6217e+02 ;    C10 - C11  - H12      CT -   CT - HC  
    10     11     27      1 ;    1.0959e+02    3.6217e+02 ;    C10 - C11  - H13      CT -   CT - HC  
    11     10     24      1 ;    1.0968e+02    3.6208e+02 ;    C11 - C10  - H10      CT -   CT - HC  
    11     10     25      1 ;    1.0968e+02    3.6208e+02 ;    C11 - C10  - H11      CT -   CT - HC  
    12      7     14      1 ;    1.2320e+02    8.4734e+02 ;     O1 - C7   - O3        O -    C - x   
    14     11     26      1 ;    1.1034e+02    4.7028e+02 ;     O3 - C11  - H12       x -   CT - HC  
    14     11     27      1 ;    1.1034e+02    4.7028e+02 ;     O3 - C11  - H13       x -   CT - HC  
    19      8     20      1 ;    1.0773e+02    2.9957e+02 ;     H5 - C8   - H6       HC -   CT - HC  
    19      8     21      1 ;    1.0773e+02    2.9957e+02 ;     H5 - C8   - H7       HC -   CT - HC  
    20      8     21      1 ;    1.0773e+02    2.9957e+02 ;     H6 - C8   - H7       HC -   CT - HC  
    22      9     23      1 ;    1.0773e+02    2.9957e+02 ;     H8 - C9   - H9       HC -   CT - HC  
    24     10     25      1 ;    1.0773e+02    2.9957e+02 ;    H10 - C10  - H11      HC -   CT - HC  
    26     11     27      1 ;    1.0855e+02    2.9824e+02 ;    H12 - C11  - H13      HC -   CT - HC  

[ dihedrals ] ; propers
; for gromacs 4.5 or higher, using funct 9
;    i      j      k      l   func   phase     kd      pn
     1      3      6      4      9 ;   180.00  15.16700   2 ;     C1-    C3-    C6-    C4
     1      3      6     13      9 ;   180.00  15.16700   2 ;     C1-    C3-    C6-    O2
     1      5      2      4      9 ;   180.00  15.16700   2 ;     C1-    C5-    C2-    C4
     1      5      2     16      9 ;   180.00  15.16700   2 ;     C1-    C5-    C2-    H2
     1      5      7     12      9 ;   180.00   2.42672   2 ;     C1-    C5-    C7-    O1
     1      5      7     14      9 ;   180.00   4.18400   2 ;     C1-    C5-    C7-    O3
     2      4      6      3      9 ;   180.00  15.16700   2 ;     C2-    C4-    C6-    C3
     2      4      6     13      9 ;   180.00  15.16700   2 ;     C2-    C4-    C6-    O2
     2      5      7     12      9 ;   180.00   2.42672   2 ;     C2-    C5-    C7-    O1
     2      5      7     14      9 ;   180.00   4.18400   2 ;     C2-    C5-    C7-    O3
     3      1      5      2      9 ;   180.00  15.16700   2 ;     C3-    C1-    C5-    C2
     3      1      5      7      9 ;   180.00  15.16700   2 ;     C3-    C1-    C5-    C7
     3      6      4     18      9 ;   180.00  15.16700   2 ;     C3-    C6-    C4-    H4
     3      6     13     28      9 ;   180.00   3.57732   2 ;     C3-    C6-    O2-   H14
     4      2      5      7      9 ;   180.00  15.16700   2 ;     C4-    C2-    C5-    C7
     4      6      3     17      9 ;   180.00  15.16700   2 ;     C4-    C6-    C3-    H3
     4      6     13     28      9 ;   180.00   3.57732   2 ;     C4-    C6-    O2-   H14
     5      1      3      6      9 ;   180.00  15.16700   2 ;     C5-    C1-    C3-    C6
     5      1      3     17      9 ;   180.00  15.16700   2 ;     C5-    C1-    C3-    H3
     5      2      4      6      9 ;   180.00  15.16700   2 ;     C5-    C2-    C4-    C6
     5      2      4     18      9 ;   180.00  15.16700   2 ;     C5-    C2-    C4-    H4
     5      7     14     11      9 ;     0.00   1.29704   3 ;     C5-    C7-    O3-   C11
     5      7     14     11      9 ;   180.00   6.69440   1 ;     C5-    C7-    O3-   C11
     5      7     14     11      9 ;   180.00  15.35528   2 ;     C5-    C7-    O3-   C11
     6      4      2     16      9 ;   180.00  15.16700   2 ;     C6-    C4-    C2-    H2
     7      5      2     16      9 ;   180.00  15.16700   2 ;     C7-    C5-    C2-    H2
     7     14     11     10      9 ;     0.00   1.60247   3 ;     C7-    O3-   C11-   C10
     7     14     11     10      9 ;   180.00   3.34720   1 ;     C7-    O3-   C11-   C10
     7     14     11     26      9 ;     0.00   1.60387   3 ;     C7-    O3-   C11-   H12
     7     14     11     27      9 ;     0.00   1.60387   3 ;     C7-    O3-   C11-   H13
     8      9     10     11      9 ;     0.00   2.17568   3 ;     C8-    C9-   C10-   C11
     8      9     10     24      9 ;     0.00   0.54392   3 ;     C8-    C9-   C10-   H10
     8      9     10     25      9 ;     0.00   0.54392   3 ;     C8-    C9-   C10-   H11
     9     10     11     14      9 ;     0.00   0.65084   3 ;     C9-   C10-   C11-    O3
     9     10     11     26      9 ;     0.00   0.65084   3 ;     C9-   C10-   C11-   H12
     9     10     11     27      9 ;     0.00   0.65084   3 ;     C9-   C10-   C11-   H13
    10      9      8     19      9 ;     0.00   0.54392   3 ;    C10-    C9-    C8-    H5
    10      9      8     20      9 ;     0.00   0.54392   3 ;    C10-    C9-    C8-    H6
    10      9      8     21      9 ;     0.00   0.54392   3 ;    C10-    C9-    C8-    H7
    11     10      9     22      9 ;     0.00   0.54392   3 ;    C11-   C10-    C9-    H8
    11     10      9     23      9 ;     0.00   0.54392   3 ;    C11-   C10-    C9-    H9
    11     14      7     12      9 ;   180.00   5.85760   1 ;    C11-    O3-    C7-    O1
    11     14      7     12      9 ;   180.00  11.29680   2 ;    C11-    O3-    C7-    O1
    13      6      3     17      9 ;   180.00  15.16700   2 ;     O2-    C6-    C3-    H3
    13      6      4     18      9 ;   180.00  15.16700   2 ;     O2-    C6-    C4-    H4
    14     11     10     24      9 ;     0.00   0.00000   0 ;     O3-   C11-   C10-   H10
    14     11     10     24      9 ;     0.00   1.04600   1 ;     O3-   C11-   C10-   H10
    14     11     10     25      9 ;     0.00   0.00000   0 ;     O3-   C11-   C10-   H11
    14     11     10     25      9 ;     0.00   1.04600   1 ;     O3-   C11-   C10-   H11
    15      1      3      6      9 ;   180.00  15.16700   2 ;     H1-    C1-    C3-    C6
    15      1      3     17      9 ;   180.00  15.16700   2 ;     H1-    C1-    C3-    H3
    15      1      5      2      9 ;   180.00  15.16700   2 ;     H1-    C1-    C5-    C2
    15      1      5      7      9 ;   180.00  15.16700   2 ;     H1-    C1-    C5-    C7
    16      2      4     18      9 ;   180.00  15.16700   2 ;     H2-    C2-    C4-    H4
    19      8      9     22      9 ;     0.00   0.50208   3 ;     H5-    C8-    C9-    H8
    19      8      9     23      9 ;     0.00   0.50208   3 ;     H5-    C8-    C9-    H9
    20      8      9     22      9 ;     0.00   0.50208   3 ;     H6-    C8-    C9-    H8
    20      8      9     23      9 ;     0.00   0.50208   3 ;     H6-    C8-    C9-    H9
    21      8      9     22      9 ;     0.00   0.50208   3 ;     H7-    C8-    C9-    H8
    21      8      9     23      9 ;     0.00   0.50208   3 ;     H7-    C8-    C9-    H9
    22      9     10     24      9 ;     0.00   0.50208   3 ;     H8-    C9-   C10-   H10
    22      9     10     25      9 ;     0.00   0.50208   3 ;     H8-    C9-   C10-   H11
    23      9     10     24      9 ;     0.00   0.50208   3 ;     H9-    C9-   C10-   H10
    23      9     10     25      9 ;     0.00   0.50208   3 ;     H9-    C9-   C10-   H11
    24     10     11     26      9 ;     0.00   0.65084   3 ;    H10-   C10-   C11-   H12
    24     10     11     27      9 ;     0.00   0.65084   3 ;    H10-   C10-   C11-   H13
    25     10     11     26      9 ;     0.00   0.65084   3 ;    H11-   C10-   C11-   H12
    25     10     11     27      9 ;     0.00   0.65084   3 ;    H11-   C10-   C11-   H13

[ dihedrals ] ; impropers
; treated as propers in GROMACS to use correct AMBER analytical function
;    i      j      k      l   func   phase     kd      pn
     1      6      3     17      4 ;   180.00   4.60240   2 ;     C1-    C6-    C3-    H3
     2      6      4     18      4 ;   180.00   4.60240   2 ;     C2-    C6-    C4-    H4
     3      4      6     13      4 ;   180.00   4.60240   2 ;     C3-    C4-    C6-    O2
     4      5      2     16      4 ;   180.00   4.60240   2 ;     C4-    C5-    C2-    H2
     5     12      7     14      4 ;   180.00   4.60240   2 ;     C5-    O1-    C7-    O3
     7      1      5      2      4 ;   180.00   4.60240   2 ;     C7-    C1-    C5-    C2
    15      1      5      3      4 ;   180.00   4.60240   2 ;     H1-    C1-    C5-    C3
