butyl
    28
  -5.5940000  -3.2690000  -3.6070000  -6.5310000  -2.7250000  -1.4480000
  -6.8590000  -3.1600000  -4.1830000  -7.7960000  -2.6160000  -2.0240000
  -5.4290000  -3.0510000  -2.2390000  -7.9610000  -2.8340000  -3.3920000
  -4.0820000  -3.1660000  -1.6250000  -2.1120000  -2.3900000   4.1560000
  -1.8650000  -2.7390000   2.6970000  -3.1550000  -2.6880000   1.8840000
  -2.9050000  -2.9950000   0.4140000  -3.0790000  -3.4480000  -2.2610000
  -9.1950000  -2.7290000  -3.9540000  -4.1380000  -2.9160000  -0.2880000
  -4.7430000  -3.5250000  -4.2330000  -6.4140000  -2.5530000  -0.3810000
  -6.9810000  -3.3310000  -5.2500000  -8.6500000  -2.3620000  -1.4020000
  -2.8410000  -3.0730000   4.6050000  -1.1850000  -2.4470000   4.7360000
  -2.5040000  -1.3720000   4.2410000  -1.1330000  -2.0390000   2.2790000
  -1.4260000  -3.7420000   2.6370000  -3.8860000  -3.4010000   2.2840000
  -3.6220000  -1.6990000   1.9740000  -2.2090000  -2.2720000  -0.0230000
  -2.4970000  -4.0030000   0.2890000  -9.8540000  -2.4970000  -3.2800000
