mobley_7912193_GMX.gro created by acpype (v: 2023.10.27) on Thu May 21 00:02:07 2026
 28
    1  MOL   C1    1  -0.559  -0.327  -0.361
    1  MOL   C2    2  -0.653  -0.273  -0.145
    1  MOL   C3    3  -0.686  -0.316  -0.418
    1  MOL   C4    4  -0.780  -0.262  -0.202
    1  MOL   C5    5  -0.543  -0.305  -0.224
    1  MOL   C6    6  -0.796  -0.283  -0.339
    1  MOL   C7    7  -0.408  -0.317  -0.163
    1  MOL   C8    8  -0.211  -0.239   0.416
    1  MOL   C9    9  -0.186  -0.274   0.270
    1  MOL  C10   10  -0.316  -0.269   0.188
    1  MOL  C11   11  -0.290  -0.300   0.041
    1  MOL   O1   12  -0.308  -0.345  -0.226
    1  MOL   O2   13  -0.920  -0.273  -0.395
    1  MOL   O3   14  -0.414  -0.292  -0.029
    1  MOL   H1   15  -0.474  -0.353  -0.423
    1  MOL   H2   16  -0.641  -0.255  -0.038
    1  MOL   H3   17  -0.698  -0.333  -0.525
    1  MOL   H4   18  -0.865  -0.236  -0.140
    1  MOL   H5   19  -0.284  -0.307   0.461
    1  MOL   H6   20  -0.119  -0.245   0.474
    1  MOL   H7   21  -0.250  -0.137   0.424
    1  MOL   H8   22  -0.113  -0.204   0.228
    1  MOL   H9   23  -0.143  -0.374   0.264
    1  MOL  H10   24  -0.389  -0.340   0.228
    1  MOL  H11   25  -0.362  -0.170   0.197
    1  MOL  H12   26  -0.221  -0.227  -0.002
    1  MOL  H13   27  -0.250  -0.400   0.029
    1  MOL  H14   28  -0.985  -0.250  -0.328
   17.44200     5.26200    19.97200
