; mobley_7912193_GMX_OPLS.top created by acpype (v: 2023.10.27) on Thu May 21 00:02:07 2026

; Include forcefield parameters
#include "ffoplsaa.itp"

; Include mobley_7912193_GMX.itp topology
#include "mobley_7912193_GMX.itp"

; Ligand position restraints
#ifdef POSRES_LIG
#include "posre_mobley_7912193.itp"
#endif

[ system ]
 mobley_7912193

[ molecules ]
; Compound        nmols
 mobley_7912193   1     
