%VERSION  VERSION_STAMP = V0001.000  DATE = 05/21/26  00:02:12                  
%FLAG TITLE                                                                     
%FORMAT(20a4)                                                                   
butyl                                                                           
%FLAG POINTERS                                                                  
%FORMAT(10I8)                                                                   
      28       9      14      14      30      17      49      26       0       0
     138       1      14      17      26      11      16      19      10       0
       0       0       0       0       0       0       0       0      28       0
       0
%FLAG ATOM_NAME                                                                 
%FORMAT(20a4)                                                                   
C1  C2  C3  C4  C5  C6  C7  C8  C9  C10 C11 O1  O2  O3  H1  H2  H3  H4  H5  H6  
H7  H8  H9  H10 H11 H12 H13 H14 
%FLAG CHARGE                                                                    
%FORMAT(5E16.8)                                                                 
 -6.19558200E-01 -6.19558200E-01 -3.73557150E+00 -3.73557150E+00 -3.16339128E+00
  2.88094563E+00  1.18936952E+01 -1.67827383E+00 -1.44685062E+00 -1.57440672E+00
  2.57663322E+00 -1.00222650E+01 -8.94897153E+00 -8.08887897E+00  2.89734570E+00
  2.89734570E+00  2.71512270E+00  2.71512270E+00  6.38381836E-01  6.38381836E-01
  6.38381836E-01  7.78092210E-01  7.78092210E-01  9.78537510E-01  9.78537510E-01
  9.69426360E-01  9.69426360E-01  7.72625520E+00
%FLAG ATOMIC_NUMBER                                                             
%FORMAT(10I8)                                                                   
       6       6       6       6       6       6       6       6       6       6
       6       8       8       8       1       1       1       1       1       1
       1       1       1       1       1       1       1       1
%FLAG MASS                                                                      
%FORMAT(5E16.8)                                                                 
  1.20100000E+01  1.20100000E+01  1.20100000E+01  1.20100000E+01  1.20100000E+01
  1.20100000E+01  1.20100000E+01  1.20100000E+01  1.20100000E+01  1.20100000E+01
  1.20100000E+01  1.60000000E+01  1.60000000E+01  1.60000000E+01  1.00800000E+00
  1.00800000E+00  1.00800000E+00  1.00800000E+00  1.00800000E+00  1.00800000E+00
  1.00800000E+00  1.00800000E+00  1.00800000E+00  1.00800000E+00  1.00800000E+00
  1.00800000E+00  1.00800000E+00  1.00800000E+00
%FLAG ATOM_TYPE_INDEX                                                           
%FORMAT(10I8)                                                                   
       1       1       1       1       1       1       1       2       2       2
       2       3       4       5       6       6       6       6       7       7
       7       7       7       7       7       8       8       9
%FLAG NUMBER_EXCLUDED_ATOMS                                                     
%FORMAT(10I8)                                                                   
      12      11       9       8       9       6       8      10      12      11
       8       1       3       4       1       1       1       1       4       3
       2       3       2       3       2       1       1       1
%FLAG NONBONDED_PARM_INDEX                                                      
%FORMAT(10I8)                                                                   
       1       2       4       7      11      16      22      29      37       2
       3       5       8      12      17      23      30      38       4       5
       6       9      13      18      24      31      39       7       8       9
      10      14      19      25      32      40      11      12      13      14
      15      20      26      33      41      16      17      18      19      20
      21      27      34      42      22      23      24      25      26      27
      28      35      43      29      30      31      32      33      34      35
      36      44      37      38      39      40      41      42      43      44
      45
%FLAG RESIDUE_LABEL                                                             
%FORMAT(20a4)                                                                   
MOL 
%FLAG RESIDUE_POINTER                                                           
%FORMAT(10I8)                                                                   
       1
%FLAG BOND_FORCE_CONSTANT                                                       
%FORMAT(5E16.8)                                                                 
  3.54250000E+02  3.60690000E+02  2.62840000E+02  3.48550000E+02  5.90600000E+02
  3.51310000E+02  2.28890000E+02  3.45250000E+02  2.82270000E+02  3.44220000E+02
  5.35510000E+02
%FLAG BOND_EQUIL_VALUE                                                          
%FORMAT(5E16.8)                                                                 
  1.39860000E+00  1.08600000E+00  1.49070000E+00  1.36440000E+00  1.21900000E+00
  1.36210000E+00  1.53540000E+00  1.09620000E+00  1.42730000E+00  1.09690000E+00
  9.72500000E-01
%FLAG ANGLE_FORCE_CONSTANT                                                      
%FORMAT(5E16.8)                                                                 
  6.36700000E+01  4.49000000E+01  6.14400000E+01  7.88600000E+01  7.79600000E+01
  7.85800000E+01  6.74100000E+01  8.94300000E+01  5.98700000E+01  4.32700000E+01
  7.74400000E+01  4.32800000E+01  1.01260000E+02  5.62000000E+01  3.58000000E+01
  3.56400000E+01
%FLAG ANGLE_EQUIL_VALUE                                                         
%FORMAT(5E16.8)                                                                 
  2.09474507E+00  2.09230160E+00  2.10015559E+00  2.09265067E+00  2.13977458E+00
  1.96192545E+00  1.89507931E+00  2.02144121E+00  1.96576518E+00  1.91427794E+00
  1.87832415E+00  1.91270715E+00  2.15024656E+00  1.92579712E+00  1.88024401E+00
  1.89455572E+00
%FLAG DIHEDRAL_FORCE_CONSTANT                                                   
%FORMAT(5E16.8)                                                                 
  3.62500000E+00  5.80000000E-01  1.00000000E+00  8.55000000E-01  1.60000000E+00
  3.67000000E+00  3.10000000E-01  8.00000000E-01  3.83000000E-01  3.83333333E-01
  5.20000000E-01  1.30000000E-01  1.55555556E-01  1.40000000E+00  2.70000000E+00
  2.50000000E-01  0.00000000E+00  1.20000000E-01  1.10000000E+00
%FLAG DIHEDRAL_PERIODICITY                                                      
%FORMAT(5E16.8)                                                                 
  2.00000000E+00  2.00000000E+00  2.00000000E+00  2.00000000E+00  1.00000000E+00
  2.00000000E+00  3.00000000E+00  1.00000000E+00  3.00000000E+00  3.00000000E+00
  3.00000000E+00  3.00000000E+00  3.00000000E+00  1.00000000E+00  2.00000000E+00
  1.00000000E+00  3.00000000E+00  3.00000000E+00  2.00000000E+00
%FLAG DIHEDRAL_PHASE                                                            
%FORMAT(5E16.8)                                                                 
  3.14159400E+00  3.14159400E+00  3.14159400E+00  3.14159400E+00  3.14159400E+00
  3.14159400E+00  0.00000000E+00  3.14159400E+00  0.00000000E+00  0.00000000E+00
  0.00000000E+00  0.00000000E+00  0.00000000E+00  3.14159400E+00  3.14159400E+00
  0.00000000E+00  0.00000000E+00  0.00000000E+00  3.14159400E+00
%FLAG SCEE_SCALE_FACTOR                                                         
%FORMAT(5E16.8)                                                                 
  1.20000000E+00  1.20000000E+00  1.20000000E+00  1.20000000E+00  1.20000000E+00
  1.20000000E+00  1.20000000E+00  1.20000000E+00  1.20000000E+00  1.20000000E+00
  1.20000000E+00  1.20000000E+00  1.20000000E+00  1.20000000E+00  1.20000000E+00
  1.20000000E+00  1.20000000E+00  1.20000000E+00  0.00000000E+00
%FLAG SCNB_SCALE_FACTOR                                                         
%FORMAT(5E16.8)                                                                 
  2.00000000E+00  2.00000000E+00  2.00000000E+00  2.00000000E+00  2.00000000E+00
  2.00000000E+00  2.00000000E+00  2.00000000E+00  2.00000000E+00  2.00000000E+00
  2.00000000E+00  2.00000000E+00  2.00000000E+00  2.00000000E+00  2.00000000E+00
  2.00000000E+00  2.00000000E+00  2.00000000E+00  0.00000000E+00
%FLAG SOLTY                                                                     
%FORMAT(5E16.8)                                                                 
  0.00000000E+00  0.00000000E+00  0.00000000E+00  0.00000000E+00  0.00000000E+00
  0.00000000E+00  0.00000000E+00  0.00000000E+00  0.00000000E+00  0.00000000E+00
%FLAG LENNARD_JONES_ACOEF                                                       
%FORMAT(5E16.8)                                                                 
  6.96551276E+05  8.43969952E+05  1.02073671E+06  5.17507491E+05  6.30925504E+05
  3.76435470E+05  5.92438683E+05  7.18991463E+05  4.37717034E+05  5.03152404E+05
  4.46121722E+05  5.42502534E+05  3.27367585E+05  3.78207390E+05  2.83662575E+05
  7.52549148E+04  9.27554496E+04  5.27277400E+04  6.30298721E+04  4.65732396E+04
  6.90855956E+03  8.12662403E+04  1.00235148E+05  5.68021765E+04  6.80216136E+04
  5.02224902E+04  7.41026906E+03  7.94617769E+03  5.63013422E+04  6.97998263E+04
  3.86646725E+04  4.69084694E+04  3.44374471E+04  4.88692384E+03  5.22955465E+03
  3.39005767E+03  2.25372434E+02  3.03553352E+02  1.15813907E+02  1.74176419E+02
  1.16469347E+02  8.53132435E+00  8.80612241E+00  4.36660257E+00  1.10360882E-05
%FLAG LENNARD_JONES_BCOEF                                                       
%FORMAT(5E16.8)                                                                 
  5.24668528E+02  5.90251928E+02  6.63431737E+02  4.98871431E+02  5.62969425E+02
  4.69350655E+02  4.76608379E+02  5.36620538E+02  4.51916854E+02  4.32634597E+02
  3.88758656E+02  4.38146883E+02  3.67361018E+02  3.52573684E+02  2.87011518E+02
  1.09570372E+02  1.24325688E+02  1.01173582E+02  9.87712192E+01  7.98066064E+01
  2.10929191E+01  1.21392023E+02  1.37787728E+02  1.11953944E+02  1.09393126E+02
  8.83545880E+01  2.32899892E+01  2.57122925E+01  1.01040256E+02  1.14981426E+02
  9.23664132E+01  9.08431526E+01  7.31636661E+01  1.89134207E+01  2.08590256E+01
  1.67944276E+01  4.40751799E+00  5.22789272E+00  3.48534600E+00  3.81654050E+00
  2.93355636E+00  5.44840215E-01  5.90150328E-01  4.15568027E-01  4.55498033E-04
%FLAG BONDS_INC_HYDROGEN                                                        
%FORMAT(10I8)                                                                   
       0      42       2       3      45       2       6      48       2       9
      51       2      21      54       8      21      57       8      21      60
       8      24      63       8      24      66       8      27      69       8
      27      72       8      30      75      10      30      78      10      36
      81      11
%FLAG BONDS_WITHOUT_HYDROGEN                                                    
%FORMAT(10I8)                                                                   
       0       6       1       0      12       1       3       9       1       3
      12       1       6      15       1       9      15       1      12      18
       3      15      36       4      18      33       5      18      39       6
      21      24       7      24      27       7      27      30       7      30
      39       9
%FLAG ANGLES_INC_HYDROGEN                                                       
%FORMAT(10I8)                                                                   
       0       6      48       2       3       9      51       2       6       0
      42       2       9       3      45       2      12       0      42       2
      12       3      45       2      15       6      48       2      15       9
      51       2      15      36      81       7      21      24      63      10
      21      24      66      10      24      21      54      10      24      21
      57      10      24      21      60      10      24      27      69      10
      24      27      72      10      27      24      63      10      27      24
      66      10      27      30      75      12      27      30      78      12
      30      27      69      10      30      27      72      10      39      30
      75      14      39      30      78      14      54      21      57      15
      54      21      60      15      57      21      60      15      63      24
      66      15      69      27      72      15      75      30      78      16
%FLAG ANGLES_WITHOUT_HYDROGEN                                                   
%FORMAT(10I8)                                                                   
       0       6      15       1       0      12       3       1       0      12
      18       3       3       9      15       1       3      12      18       3
       6       0      12       1       6      15       9       1       6      15
      36       4       9       3      12       1       9      15      36       4
      12      18      33       5      12      18      39       6      18      39
      30       8      21      24      27       9      24      27      30       9
      27      30      39      11      33      18      39      13
%FLAG DIHEDRALS_INC_HYDROGEN                                                    
%FORMAT(10I8)                                                                   
       0      12       3      45       1      42       0      12       3       1
       6      15       9      51       1       6      15      36      81       4
       9      15       6      48       1       9      15      36      81       4
      12       0       6      48       1      12       3       9      51       1
      42       0       6      15       1      15       9       3      45       1
      42       0      12      18       1      18      12       3      45       1
      18      39      30      75      10      18      39      30      78      10
      21      24      27      69      12      21      24      27      72      12
      24      27      30      75      13      24      27      30      78      13
      27      24      21      54      12      27      24      21      57      12
      27      24      21      60      12      30      27      24      63      12
      30      27      24      66      12      36      15       6      48       1
      36      15       9      51       1      39      30      27      69      16
      39      30     -27      69      17      39      30      27      72      16
      39      30     -27      72      17      42       0       6      48       1
      45       3       9      51       1      54      21      24      63      18
      54      21      24      66      18      57      21      24      63      18
      57      21      24      66      18      60      21      24      63      18
      60      21      24      66      18      63      24      27      69      18
      63      24      27      72      18      66      24      27      69      18
      66      24      27      72      18      69      27      30      75      13
      69      27      30      78      13      72      27      30      75      13
      72      27      30      78      13      42       0     -12      -6      19
       9      12      -3     -45      19       0      15      -6     -48      19
       3      15      -9     -51      19
%FLAG DIHEDRALS_WITHOUT_HYDROGEN                                                
%FORMAT(10I8)                                                                   
       0       6      15       9       1       0       6      15      36       1
       0      12      -3       9       1       0      12      18      33       2
       0      12      18      39       3       3       9      15       6       1
       3       9      15      36       1       6       0     -12       3       1
       3      12      18      33       2       3      12      18      39       3
       6       0      12      18       1       9       3      12      18       1
      12       0       6      15       1      12       3      -9      15       1
      12      18      39      30       5      12      18     -39      30       6
      12      18     -39      30       7      18      39      30      27       8
      18      39     -30      27       9      21      24      27      30      11
      24      27      30      39      13      30      39      18      33      14
      30      39     -18      33      15      18       0     -12      -3      19
       6       9     -15     -36      19      12      33     -18     -39      19
%FLAG EXCLUDED_ATOMS_LIST                                                       
%FORMAT(10I8)                                                                   
       2       3       4       5       6       7      12      13      14      15
      16      17       3       4       5       6       7      12      13      14
      15      16      18       4       5       6       7      13      15      17
      18      28       5       6       7      13      16      17      18      28
       6       7      11      12      14      15      16      17      18      13
      15      16      17      18      28      10      11      12      14      15
      16      26      27       9      10      11      19      20      21      22
      23      24      25      10      11      14      19      20      21      22
      23      24      25      26      27      11      14      19      20      21
      22      23      24      25      26      27      12      14      22      23
      24      25      26      27      14      17      18      28      24      25
      26      27      17      18       0       0      20      21      22      23
      21      22      23      22      23      23      24      25      24      25
      25      26      27      26      27      27       0       0
%FLAG HBOND_ACOEF                                                               
%FORMAT(5E16.8)                                                                 

%FLAG HBOND_BCOEF                                                               
%FORMAT(5E16.8)                                                                 

%FLAG HBCUT                                                                     
%FORMAT(5E16.8)                                                                 

%FLAG AMBER_ATOM_TYPE                                                           
%FORMAT(20a4)                                                                   
ca  ca  ca  ca  ca  ca  c   c3  c3  c3  c3  o   oh  os  ha  ha  ha  ha  hc  hc  
hc  hc  hc  hc  hc  h1  h1  ho  
%FLAG TREE_CHAIN_CLASSIFICATION                                                 
%FORMAT(20a4)                                                                   
BLA BLA BLA BLA BLA BLA BLA BLA BLA BLA BLA BLA BLA BLA BLA BLA BLA BLA BLA BLA 
BLA BLA BLA BLA BLA BLA BLA BLA 
%FLAG JOIN_ARRAY                                                                
%FORMAT(10I8)                                                                   
       0       0       0       0       0       0       0       0       0       0
       0       0       0       0       0       0       0       0       0       0
       0       0       0       0       0       0       0       0
%FLAG IROTAT                                                                    
%FORMAT(10I8)                                                                   
       0       0       0       0       0       0       0       0       0       0
       0       0       0       0       0       0       0       0       0       0
       0       0       0       0       0       0       0       0
%FLAG RADIUS_SET                                                                
%FORMAT(1a80)                                                                   
modified Bondi radii (mbondi)                                                   
%FLAG RADII                                                                     
%FORMAT(5E16.8)                                                                 
  1.70000000E+00  1.70000000E+00  1.70000000E+00  1.70000000E+00  1.70000000E+00
  1.70000000E+00  1.70000000E+00  1.70000000E+00  1.70000000E+00  1.70000000E+00
  1.70000000E+00  1.50000000E+00  1.50000000E+00  1.50000000E+00  1.30000000E+00
  1.30000000E+00  1.30000000E+00  1.30000000E+00  1.30000000E+00  1.30000000E+00
  1.30000000E+00  1.30000000E+00  1.30000000E+00  1.30000000E+00  1.30000000E+00
  1.30000000E+00  1.30000000E+00  8.00000000E-01
%FLAG SCREEN                                                                    
%FORMAT(5E16.8)                                                                 
  7.20000000E-01  7.20000000E-01  7.20000000E-01  7.20000000E-01  7.20000000E-01
  7.20000000E-01  7.20000000E-01  7.20000000E-01  7.20000000E-01  7.20000000E-01
  7.20000000E-01  8.50000000E-01  8.50000000E-01  8.50000000E-01  8.50000000E-01
  8.50000000E-01  8.50000000E-01  8.50000000E-01  8.50000000E-01  8.50000000E-01
  8.50000000E-01  8.50000000E-01  8.50000000E-01  8.50000000E-01  8.50000000E-01
  8.50000000E-01  8.50000000E-01  8.50000000E-01
%FLAG IPOL                                                                      
%FORMAT(1I8)                                                                    
       0
