; mobley_6714389_GMX_OPLS.top created by acpype (v: 2023.10.27) on Thu May 21 00:02:04 2026

; Include forcefield parameters
#include "ffoplsaa.itp"

; Include mobley_6714389_GMX.itp topology
#include "mobley_6714389_GMX.itp"

; Ligand position restraints
#ifdef POSRES_LIG
#include "posre_mobley_6714389.itp"
#endif

[ system ]
 mobley_6714389

[ molecules ]
; Compound        nmols
 mobley_6714389   1     
