; mobley_6714389_GMX_OPLS.itp created by acpype (v: 2023.10.27) on Thu May 21 00:02:04 2026

; For OPLS atomtypes manual fine tuning
; AC_at:OPLS_at:OPLScode: Possible_Alternatives (see ffoplsaa.atp and ffoplsaanb.itp)
; c3:CT:opls_135: ['136', '137', '149', '157', '158', '206', '209', '210', '223B', '224B', '245', '246', '274', '283', '284', '285', '292', '292B', '293B', '296', '307', '308', '505']
; n8:x:opls_x: []
; h1:HC:opls_140: []
; hn:H:opls_240: ['241', '290', '301', '304', '310', '504', '513']

[ moleculetype ]
;name            nrexcl
 mobley_6714389   3

[ atoms ]
;   nr  type  resi  res  atom  cgnr     charge      mass       ; qtot   bond_type
     1 opls_135     1   MOL    C1    1     0.147100     12.01100 ; qtot  0.147  CT  
     2 opls_x     1   MOL    N1    2    -0.919800      0.00000 ; qtot -0.773  x   
     3 opls_140     1   MOL    H1    3     0.025700      1.00800 ; qtot -0.747  HC  
     4 opls_140     1   MOL    H2    4     0.025700      1.00800 ; qtot -0.721  HC  
     5 opls_140     1   MOL    H3    5     0.025700      1.00800 ; qtot -0.696  HC  
     6 opls_240     1   MOL    H4    6     0.347800      1.00800 ; qtot -0.348  H   
     7 opls_240     1   MOL    H5    7     0.347800      1.00800 ; qtot -0.000  H   

[ bonds ]
;   ai     aj funct   r             k
     1      2   1 ;    1.4651e-01    2.1239e+05 ;     C1 - N1         CT - x     
     1      3   1 ;    1.0969e-01    2.8804e+05 ;     C1 - H1         CT - HC    
     1      4   1 ;    1.0969e-01    2.8804e+05 ;     C1 - H2         CT - HC    
     1      5   1 ;    1.0969e-01    2.8804e+05 ;     C1 - H3         CT - HC    
     2      6   1 ;    1.0192e-01    3.8550e+05 ;     N1 - H4          x - H     
     2      7   1 ;    1.0192e-01    3.8550e+05 ;     N1 - H5          x - H     

[ pairs ]
;   ai     aj    funct
     3      6      1 ;     H1 - H4    
     3      7      1 ;     H1 - H5    
     4      6      1 ;     H2 - H4    
     4      7      1 ;     H2 - H5    
     5      6      1 ;     H3 - H4    
     5      7      1 ;     H3 - H5    

[ angles ]
;   ai     aj     ak    funct   theta         cth
     1      2      6      1 ;    1.0961e+02    4.7003e+02 ;     C1 - N1   - H4       CT -    x - H   
     1      2      7      1 ;    1.0961e+02    4.7003e+02 ;     C1 - N1   - H5       CT -    x - H   
     2      1      3      1 ;    1.0812e+02    4.0342e+02 ;     N1 - C1   - H1        x -   CT - HC  
     2      1      4      1 ;    1.0812e+02    4.0342e+02 ;     N1 - C1   - H2        x -   CT - HC  
     2      1      5      1 ;    1.0812e+02    4.0342e+02 ;     N1 - C1   - H3        x -   CT - HC  
     3      1      4      1 ;    1.0855e+02    2.9824e+02 ;     H1 - C1   - H2       HC -   CT - HC  
     3      1      5      1 ;    1.0855e+02    2.9824e+02 ;     H1 - C1   - H3       HC -   CT - HC  
     4      1      5      1 ;    1.0855e+02    2.9824e+02 ;     H2 - C1   - H3       HC -   CT - HC  
     6      2      7      1 ;    1.0638e+02    4.0074e+02 ;     H4 - N1   - H5        H -    x - H   

[ dihedrals ] ; propers
; for gromacs 4.5 or higher, using funct 9
;    i      j      k      l   func   phase     kd      pn
     3      1      2      6      9 ;     0.00   1.25520   3 ;     H1-    C1-    N1-    H4
     3      1      2      7      9 ;     0.00   1.25520   3 ;     H1-    C1-    N1-    H5
     4      1      2      6      9 ;     0.00   1.25520   3 ;     H2-    C1-    N1-    H4
     4      1      2      7      9 ;     0.00   1.25520   3 ;     H2-    C1-    N1-    H5
     5      1      2      6      9 ;     0.00   1.25520   3 ;     H3-    C1-    N1-    H4
     5      1      2      7      9 ;     0.00   1.25520   3 ;     H3-    C1-    N1-    H5
