mobley_6714389_GMX.gro created by acpype (v: 2023.10.27) on Thu May 21 00:02:04 2026
 7
    1  MOL   C1    1  -0.077  -0.069   0.037
    1  MOL   N1    2  -0.184  -0.080  -0.059
    1  MOL   H1    3  -0.114  -0.031   0.133
    1  MOL   H2    4   0.000   0.000   0.000
    1  MOL   H3    5  -0.030  -0.166   0.054
    1  MOL   H4    6  -0.229   0.011  -0.072
    1  MOL   H5    7  -0.257  -0.142  -0.023
    5.13400     3.54000     4.09000
