; mobley_6714389_GMX.top created by acpype (v: 2023.10.27) on Thu May 21 00:02:04 2026

[ defaults ]
; nbfunc        comb-rule       gen-pairs       fudgeLJ fudgeQQ
1               2               yes             0.5     0.8333333333

; Include mobley_6714389_GMX.itp topology
#include "mobley_6714389_GMX.itp"

; Ligand position restraints
#ifdef POSRES_LIG
#include "posre_mobley_6714389.itp"
#endif

[ system ]
mobley_6714389 in water

[ molecules ]
; Compound        nmols
 mobley_6714389   1     
SOL              2631
