mobley_2751110_GMX.gro created by acpype (v: 2023.10.27) on Wed May 20 23:59:14 2026
   15
    1MOL     C1    1   2.239   2.392   2.292
    1MOL     C2    2   2.451   2.276   2.298
    1MOL     C3    3   2.237   2.395   2.432
    1MOL     C4    4   2.449   2.279   2.437
    1MOL     C5    5   2.346   2.333   2.225
    1MOL     C6    6   2.342   2.339   2.504
    1MOL     N1    7   2.347   2.329   2.084
    1MOL     O1    8   2.252   2.380   2.020
    1MOL     O2    9   2.445   2.275   2.025
    1MOL     O3   10   2.340   2.342   2.640
    1MOL     H1   11   2.156   2.436   2.237
    1MOL     H2   12   2.535   2.229   2.247
    1MOL     H3   13   2.153   2.442   2.484
    1MOL     H4   14   2.531   2.236   2.493
    1MOL     H5   15   2.275   2.408   2.669
   4.67921   4.67921   4.67921
