; mobley_3151666_GMX_OPLS.top created by acpype (v: 2023.10.27) on Wed May 20 23:51:13 2026

; Include forcefield parameters
#include "ffoplsaa.itp"

; Include mobley_3151666_GMX.itp topology
#include "mobley_3151666_GMX.itp"

; Ligand position restraints
#ifdef POSRES_LIG
#include "posre_mobley_3151666.itp"
#endif

[ system ]
 mobley_3151666

[ molecules ]
; Compound        nmols
 mobley_3151666   1     
