%VERSION  VERSION_STAMP = V0001.000  DATE = 05/20/26  23:51:16                  
%FLAG TITLE                                                                     
%FORMAT(20a4)                                                                   
decan_1_ol                                                                      
%FLAG POINTERS                                                                  
%FORMAT(10I8)                                                                   
      33       5      22      10      52       9      76       8       0       0
     178       1      10       9       8       5       8       8       5       0
       0       0       0       0       0       0       0       0      33       0
       0
%FLAG ATOM_NAME                                                                 
%FORMAT(20a4)                                                                   
C1  C2  C3  C4  C5  C6  C7  C8  C9  C10 O1  H1  H2  H3  H4  H5  H6  H7  H8  H9  
H10 H11 H12 H13 H14 H15 H16 H17 H18 H19 H20 H21 H22 
%FLAG CHARGE                                                                    
%FORMAT(5E16.8)                                                                 
 -1.67827383E+00 -1.46507292E+00 -1.44685062E+00 -1.44685062E+00 -1.44685062E+00
 -1.44685062E+00 -1.42862832E+00 -1.42862832E+00 -1.53796212E+00  2.39441022E+00
 -1.09661801E+01  5.95869210E-01  5.95869210E-01  5.95869210E-01  7.05203010E-01
  7.05203010E-01  7.23425310E-01  7.23425310E-01  7.05203010E-01  7.05203010E-01
  7.23425310E-01  7.23425310E-01  7.23425310E-01  7.23425310E-01  7.59869910E-01
  7.59869910E-01  7.23425310E-01  7.23425310E-01  1.01498211E+00  1.01498211E+00
  3.58979310E-01  3.58979310E-01  7.25247540E+00
%FLAG ATOMIC_NUMBER                                                             
%FORMAT(10I8)                                                                   
       6       6       6       6       6       6       6       6       6       6
       8       1       1       1       1       1       1       1       1       1
       1       1       1       1       1       1       1       1       1       1
       1       1       1
%FLAG MASS                                                                      
%FORMAT(5E16.8)                                                                 
  1.20100000E+01  1.20100000E+01  1.20100000E+01  1.20100000E+01  1.20100000E+01
  1.20100000E+01  1.20100000E+01  1.20100000E+01  1.20100000E+01  1.20100000E+01
  1.60000000E+01  1.00800000E+00  1.00800000E+00  1.00800000E+00  1.00800000E+00
  1.00800000E+00  1.00800000E+00  1.00800000E+00  1.00800000E+00  1.00800000E+00
  1.00800000E+00  1.00800000E+00  1.00800000E+00  1.00800000E+00  1.00800000E+00
  1.00800000E+00  1.00800000E+00  1.00800000E+00  1.00800000E+00  1.00800000E+00
  1.00800000E+00  1.00800000E+00  1.00800000E+00
%FLAG ATOM_TYPE_INDEX                                                           
%FORMAT(10I8)                                                                   
       1       1       1       1       1       1       1       1       1       1
       2       3       3       3       3       3       3       3       3       3
       3       3       3       3       3       3       3       3       3       3
       4       4       5
%FLAG NUMBER_EXCLUDED_ATOMS                                                     
%FORMAT(10I8)                                                                   
      10      12      14      13      13      13      13      13      11       8
       5       4       3       2       3       2       3       2       3       2
       3       2       3       2       3       2       3       2       3       2
       2       1       1
%FLAG NONBONDED_PARM_INDEX                                                      
%FORMAT(10I8)                                                                   
       1       2       4       7      11       2       3       5       8      12
       4       5       6       9      13       7       8       9      10      14
      11      12      13      14      15
%FLAG RESIDUE_LABEL                                                             
%FORMAT(20a4)                                                                   
MOL 
%FLAG RESIDUE_POINTER                                                           
%FORMAT(10I8)                                                                   
       1
%FLAG BOND_FORCE_CONSTANT                                                       
%FORMAT(5E16.8)                                                                 
  2.28890000E+02  3.45250000E+02  2.85150000E+02  3.44220000E+02  5.35510000E+02
%FLAG BOND_EQUIL_VALUE                                                          
%FORMAT(5E16.8)                                                                 
  1.53540000E+00  1.09620000E+00  1.42420000E+00  1.09690000E+00  9.72500000E-01
%FLAG ANGLE_FORCE_CONSTANT                                                      
%FORMAT(5E16.8)                                                                 
  5.98700000E+01  4.32700000E+01  7.67900000E+01  4.32800000E+01  6.51300000E+01
  5.62900000E+01  3.58000000E+01  3.56400000E+01
%FLAG ANGLE_EQUIL_VALUE                                                         
%FORMAT(5E16.8)                                                                 
  1.96576518E+00  1.91427794E+00  1.91392888E+00  1.91270715E+00  1.87430989E+00
  1.92649525E+00  1.88024401E+00  1.89455572E+00
%FLAG DIHEDRAL_FORCE_CONSTANT                                                   
%FORMAT(5E16.8)                                                                 
  5.20000000E-01  1.30000000E-01  1.80000000E-01  1.55555556E-01  6.00000000E-02
  9.00000000E-02  1.20000000E-01  1.23000000E-01
%FLAG DIHEDRAL_PERIODICITY                                                      
%FORMAT(5E16.8)                                                                 
  3.00000000E+00  3.00000000E+00  3.00000000E+00  3.00000000E+00  3.00000000E+00
  3.00000000E+00  3.00000000E+00  3.00000000E+00
%FLAG DIHEDRAL_PHASE                                                            
%FORMAT(5E16.8)                                                                 
  0.00000000E+00  0.00000000E+00  0.00000000E+00  0.00000000E+00  0.00000000E+00
  0.00000000E+00  0.00000000E+00  0.00000000E+00
%FLAG SCEE_SCALE_FACTOR                                                         
%FORMAT(5E16.8)                                                                 
  1.20000000E+00  1.20000000E+00  1.20000000E+00  1.20000000E+00  1.20000000E+00
  1.20000000E+00  1.20000000E+00  1.20000000E+00
%FLAG SCNB_SCALE_FACTOR                                                         
%FORMAT(5E16.8)                                                                 
  2.00000000E+00  2.00000000E+00  2.00000000E+00  2.00000000E+00  2.00000000E+00
  2.00000000E+00  2.00000000E+00  2.00000000E+00
%FLAG SOLTY                                                                     
%FORMAT(5E16.8)                                                                 
  0.00000000E+00  0.00000000E+00  0.00000000E+00  0.00000000E+00  0.00000000E+00
%FLAG LENNARD_JONES_ACOEF                                                       
%FORMAT(5E16.8)                                                                 
  1.02073671E+06  7.18991463E+05  5.03152404E+05  1.00235148E+05  6.80216136E+04
  7.94617769E+03  6.97998263E+04  4.69084694E+04  5.22955465E+03  3.39005767E+03
  3.03553352E+02  1.74176419E+02  8.80612241E+00  4.36660257E+00  1.10360882E-05
%FLAG LENNARD_JONES_BCOEF                                                       
%FORMAT(5E16.8)                                                                 
  6.63431737E+02  5.36620538E+02  4.32634597E+02  1.37787728E+02  1.09393126E+02
  2.57122925E+01  1.14981426E+02  9.08431526E+01  2.08590256E+01  1.67944276E+01
  5.22789272E+00  3.81654050E+00  5.90150328E-01  4.15568027E-01  4.55498033E-04
%FLAG BONDS_INC_HYDROGEN                                                        
%FORMAT(10I8)                                                                   
       0      33       2       0      36       2       0      39       2       3
      42       2       3      45       2       6      48       2       6      51
       2       9      54       2       9      57       2      12      60       2
      12      63       2      15      66       2      15      69       2      18
      72       2      18      75       2      21      78       2      21      81
       2      24      84       2      24      87       2      27      90       4
      27      93       4      30      96       5
%FLAG BONDS_WITHOUT_HYDROGEN                                                    
%FORMAT(10I8)                                                                   
       0       3       1       3       6       1       6       9       1       9
      12       1      12      15       1      15      18       1      18      21
       1      21      24       1      24      27       1      27      30       3
%FLAG ANGLES_INC_HYDROGEN                                                       
%FORMAT(10I8)                                                                   
       0       3      42       2       0       3      45       2       3       0
      33       2       3       0      36       2       3       0      39       2
       3       6      48       2       3       6      51       2       6       3
      42       2       6       3      45       2       6       9      54       2
       6       9      57       2       9       6      48       2       9       6
      51       2       9      12      60       2       9      12      63       2
      12       9      54       2      12       9      57       2      12      15
      66       2      12      15      69       2      15      12      60       2
      15      12      63       2      15      18      72       2      15      18
      75       2      18      15      66       2      18      15      69       2
      18      21      78       2      18      21      81       2      21      18
      72       2      21      18      75       2      21      24      84       2
      21      24      87       2      24      21      78       2      24      21
      81       2      24      27      90       4      24      27      93       4
      27      24      84       2      27      24      87       2      27      30
      96       5      30      27      90       6      30      27      93       6
      33       0      36       7      33       0      39       7      36       0
      39       7      42       3      45       7      48       6      51       7
      54       9      57       7      60      12      63       7      66      15
      69       7      72      18      75       7      78      21      81       7
      84      24      87       7      90      27      93       8
%FLAG ANGLES_WITHOUT_HYDROGEN                                                   
%FORMAT(10I8)                                                                   
       0       3       6       1       3       6       9       1       6       9
      12       1       9      12      15       1      12      15      18       1
      15      18      21       1      18      21      24       1      21      24
      27       1      24      27      30       3
%FLAG DIHEDRALS_INC_HYDROGEN                                                    
%FORMAT(10I8)                                                                   
       0       3       6      48       2       0       3       6      51       2
       3       6       9      54       2       3       6       9      57       2
      33       0       3       6       2      36       0       3       6       2
      39       0       3       6       2       6       9      12      60       2
       6       9      12      63       2       9       6       3      42       2
       9       6       3      45       2       9      12      15      66       2
       9      12      15      69       2      12       9       6      48       2
      12       9       6      51       2      12      15      18      72       2
      12      15      18      75       2      15      12       9      54       2
      15      12       9      57       2      15      18      21      78       2
      15      18      21      81       2      18      15      12      60       2
      18      15      12      63       2      18      21      24      84       2
      18      21      24      87       2      21      18      15      66       2
      21      18      15      69       2      21      24      27      90       4
      21      24      27      93       4      24      21      18      72       2
      24      21      18      75       2      24      27      30      96       5
      27      24      21      78       2      27      24      21      81       2
      30      27      24      84       6      30      27      24      87       6
      33       0       3      42       7      33       0       3      45       7
      36       0       3      42       7      36       0       3      45       7
      39       0       3      42       7      39       0       3      45       7
      42       3       6      48       7      42       3       6      51       7
      45       3       6      48       7      45       3       6      51       7
      48       6       9      54       7      48       6       9      57       7
      51       6       9      54       7      51       6       9      57       7
      54       9      12      60       7      54       9      12      63       7
      57       9      12      60       7      57       9      12      63       7
      60      12      15      66       7      60      12      15      69       7
      63      12      15      66       7      63      12      15      69       7
      66      15      18      72       7      66      15      18      75       7
      69      15      18      72       7      69      15      18      75       7
      72      18      21      78       7      72      18      21      81       7
      75      18      21      78       7      75      18      21      81       7
      78      21      24      84       7      78      21      24      87       7
      81      21      24      84       7      81      21      24      87       7
      84      24      27      90       4      84      24      27      93       4
      87      24      27      90       4      87      24      27      93       4
      90      27      30      96       8      93      27      30      96       8
%FLAG DIHEDRALS_WITHOUT_HYDROGEN                                                
%FORMAT(10I8)                                                                   
       0       3       6       9       1       3       6       9      12       1
       6       9      12      15       1       9      12      15      18       1
      12      15      18      21       1      15      18      21      24       1
      18      21      24      27       1      21      24      27      30       3
%FLAG EXCLUDED_ATOMS_LIST                                                       
%FORMAT(10I8)                                                                   
       2       3       4      12      13      14      15      16      17      18
       3       4       5      12      13      14      15      16      17      18
      19      20       4       5       6      12      13      14      15      16
      17      18      19      20      21      22       5       6       7      15
      16      17      18      19      20      21      22      23      24       6
       7       8      17      18      19      20      21      22      23      24
      25      26       7       8       9      19      20      21      22      23
      24      25      26      27      28       8       9      10      21      22
      23      24      25      26      27      28      29      30       9      10
      11      23      24      25      26      27      28      29      30      31
      32      10      11      25      26      27      28      29      30      31
      32      33      11      27      28      29      30      31      32      33
      29      30      31      32      33      13      14      15      16      14
      15      16      15      16      16      17      18      17      18      18
      19      20      19      20      20      21      22      21      22      22
      23      24      23      24      24      25      26      25      26      26
      27      28      27      28      28      29      30      29      30      30
      31      32      31      32      32      33      33       0
%FLAG HBOND_ACOEF                                                               
%FORMAT(5E16.8)                                                                 

%FLAG HBOND_BCOEF                                                               
%FORMAT(5E16.8)                                                                 

%FLAG HBCUT                                                                     
%FORMAT(5E16.8)                                                                 

%FLAG AMBER_ATOM_TYPE                                                           
%FORMAT(20a4)                                                                   
c3  c3  c3  c3  c3  c3  c3  c3  c3  c3  oh  hc  hc  hc  hc  hc  hc  hc  hc  hc  
hc  hc  hc  hc  hc  hc  hc  hc  hc  hc  h1  h1  ho  
%FLAG TREE_CHAIN_CLASSIFICATION                                                 
%FORMAT(20a4)                                                                   
BLA BLA BLA BLA BLA BLA BLA BLA BLA BLA BLA BLA BLA BLA BLA BLA BLA BLA BLA BLA 
BLA BLA BLA BLA BLA BLA BLA BLA BLA BLA BLA BLA BLA 
%FLAG JOIN_ARRAY                                                                
%FORMAT(10I8)                                                                   
       0       0       0       0       0       0       0       0       0       0
       0       0       0       0       0       0       0       0       0       0
       0       0       0       0       0       0       0       0       0       0
       0       0       0
%FLAG IROTAT                                                                    
%FORMAT(10I8)                                                                   
       0       0       0       0       0       0       0       0       0       0
       0       0       0       0       0       0       0       0       0       0
       0       0       0       0       0       0       0       0       0       0
       0       0       0
%FLAG RADIUS_SET                                                                
%FORMAT(1a80)                                                                   
modified Bondi radii (mbondi)                                                   
%FLAG RADII                                                                     
%FORMAT(5E16.8)                                                                 
  1.70000000E+00  1.70000000E+00  1.70000000E+00  1.70000000E+00  1.70000000E+00
  1.70000000E+00  1.70000000E+00  1.70000000E+00  1.70000000E+00  1.70000000E+00
  1.50000000E+00  1.30000000E+00  1.30000000E+00  1.30000000E+00  1.30000000E+00
  1.30000000E+00  1.30000000E+00  1.30000000E+00  1.30000000E+00  1.30000000E+00
  1.30000000E+00  1.30000000E+00  1.30000000E+00  1.30000000E+00  1.30000000E+00
  1.30000000E+00  1.30000000E+00  1.30000000E+00  1.30000000E+00  1.30000000E+00
  1.30000000E+00  1.30000000E+00  8.00000000E-01
%FLAG SCREEN                                                                    
%FORMAT(5E16.8)                                                                 
  7.20000000E-01  7.20000000E-01  7.20000000E-01  7.20000000E-01  7.20000000E-01
  7.20000000E-01  7.20000000E-01  7.20000000E-01  7.20000000E-01  7.20000000E-01
  8.50000000E-01  8.50000000E-01  8.50000000E-01  8.50000000E-01  8.50000000E-01
  8.50000000E-01  8.50000000E-01  8.50000000E-01  8.50000000E-01  8.50000000E-01
  8.50000000E-01  8.50000000E-01  8.50000000E-01  8.50000000E-01  8.50000000E-01
  8.50000000E-01  8.50000000E-01  8.50000000E-01  8.50000000E-01  8.50000000E-01
  8.50000000E-01  8.50000000E-01  8.50000000E-01
%FLAG IPOL                                                                      
%FORMAT(1I8)                                                                    
       0
