decan_1_ol
    33
  -2.9630000   2.3590000   0.3760000  -3.3900000   2.1890000  -1.0730000
  -3.3850000   0.7180000  -1.4890000  -3.8480000   0.5480000  -2.9380000
  -3.8780000  -0.9290000  -3.3390000  -4.4030000  -1.1640000  -4.7580000
  -4.5030000  -2.6440000  -5.1330000  -5.0040000  -2.8200000  -6.5690000
  -5.1330000  -4.3010000  -6.9350000  -5.6610000  -4.5000000  -8.3510000
  -5.7440000  -5.8870000  -8.6460000  -1.9490000   1.9780000   0.5330000
  -3.6400000   1.8250000   1.0500000  -2.9740000   3.4180000   0.6530000
  -4.3940000   2.6090000  -1.2040000  -2.7120000   2.7610000  -1.7170000
  -2.3740000   0.3070000  -1.3760000  -4.0430000   0.1470000  -0.8230000
  -3.1710000   1.1030000  -3.5970000  -4.8480000   0.9820000  -3.0570000
  -2.8740000  -1.3600000  -3.2420000  -4.5250000  -1.4760000  -2.6420000
  -3.7620000  -0.6420000  -5.4790000  -5.3980000  -0.7080000  -4.8330000
  -5.1870000  -3.1530000  -4.4420000  -3.5230000  -3.1240000  -5.0340000
  -4.3080000  -2.3300000  -7.2610000  -5.9740000  -2.3220000  -6.6800000
  -4.1560000  -4.7900000  -6.8460000  -5.8140000  -4.7840000  -6.2230000
  -4.9830000  -4.0350000  -9.0720000  -6.6550000  -4.0550000  -8.4650000
  -6.5210000  -6.0070000  -9.2160000
