; mobley_3151666_GMX.top created by acpype (v: 2023.10.27) on Wed May 20 23:51:13 2026

[ defaults ]
; nbfunc        comb-rule       gen-pairs       fudgeLJ fudgeQQ
1               2               yes             0.5     0.8333333333

; Include mobley_3151666_GMX.itp topology
#include "mobley_3151666_GMX.itp"

; Ligand position restraints
#ifdef POSRES_LIG
#include "posre_mobley_3151666.itp"
#endif

[ system ]
mobley_3151666 in water

[ molecules ]
; Compound        nmols
 mobley_3151666   1     
SOL              5087
