mobley_6973347_GMX.gro created by acpype (v: 2023.10.27) on Wed May 20 23:43:20 2026
   14
    1MOL     C1    1   2.297   2.246   2.431
    1MOL     C2    2   2.377   2.244   2.557
    1MOL     C3    3   2.352   2.455   2.136
    1MOL     C4    4   2.282   2.350   2.219
    1MOL     O1    5   2.199   2.175   2.410
    1MOL     O2    6   2.349   2.338   2.345
    1MOL     H1    7   2.372   2.342   2.606
    1MOL     H2    8   2.480   2.217   2.536
    1MOL     H3    9   2.335   2.170   2.626
    1MOL     H4   10   2.303   2.467   2.039
    1MOL     H5   11   2.351   2.552   2.187
    1MOL     H6   12   2.457   2.429   2.119
    1MOL     H7   13   2.285   2.253   2.168
    1MOL     H8   14   2.178   2.378   2.237
   4.65864   4.65864   4.65864
