; mobley_1722522_GMX_OPLS.itp created by acpype (v: 2023.10.27) on Wed May 20 23:51:36 2026

; For OPLS atomtypes manual fine tuning
; AC_at:OPLS_at:OPLScode: Possible_Alternatives (see ffoplsaa.atp and ffoplsaanb.itp)
; c:C:opls_235: ['271']
; c3:CT:opls_135: ['136', '137', '149', '157', '158', '206', '209', '210', '223B', '224B', '245', '246', '274', '283', '284', '285', '292', '292B', '293B', '296', '307', '308', '505']
; o:O:opls_236: ['272']
; os:x:opls_x: []
; hc:HC:opls_140: []
; h1:HC:opls_140: []

[ moleculetype ]
;name            nrexcl
 mobley_1722522   3

[ atoms ]
;   nr  type  resi  res  atom  cgnr     charge      mass       ; qtot   bond_type
     1 opls_235     1   MOL    C1    1     0.629100     12.01100 ; qtot  0.629  C   
     2 opls_135     1   MOL    C2    2    -0.094100     12.01100 ; qtot  0.535  CT  
     3 opls_135     1   MOL    C3    3    -0.100100     12.01100 ; qtot  0.435  CT  
     4 opls_135     1   MOL    C4    4    -0.127400     12.01100 ; qtot  0.308  CT  
     5 opls_135     1   MOL    C5    5    -0.079400     12.01100 ; qtot  0.228  CT  
     6 opls_135     1   MOL    C6    6     0.138400     12.01100 ; qtot  0.367  CT  
     7 opls_236     1   MOL    O1    7    -0.545000     15.99940 ; qtot -0.178  O   
     8 opls_x     1   MOL    O2    8    -0.445900      0.00000 ; qtot -0.624  x   
     9 opls_140     1   MOL    H1    9     0.037033      1.00800 ; qtot -0.587  HC  
    10 opls_140     1   MOL    H2   10     0.037033      1.00800 ; qtot -0.550  HC  
    11 opls_140     1   MOL    H3   11     0.037033      1.00800 ; qtot -0.513  HC  
    12 opls_140     1   MOL    H4   12     0.047367      1.00800 ; qtot -0.466  HC  
    13 opls_140     1   MOL    H5   13     0.047367      1.00800 ; qtot -0.419  HC  
    14 opls_140     1   MOL    H6   14     0.047367      1.00800 ; qtot -0.371  HC  
    15 opls_140     1   MOL    H7   15     0.077700      1.00800 ; qtot -0.293  HC  
    16 opls_140     1   MOL    H8   16     0.077700      1.00800 ; qtot -0.216  HC  
    17 opls_140     1   MOL    H9   17     0.056700      1.00800 ; qtot -0.159  HC  
    18 opls_140     1   MOL   H10   18     0.056700      1.00800 ; qtot -0.102  HC  
    19 opls_140     1   MOL   H11   19     0.051200      1.00800 ; qtot -0.051  HC  
    20 opls_140     1   MOL   H12   20     0.051200      1.00800 ; qtot  0.000  HC  

[ bonds ]
;   ai     aj funct   r             k
     1      4   1 ;    1.5270e-01    1.9652e+05 ;     C1 - C4          C - CT    
     1      7   1 ;    1.2190e-01    4.9421e+05 ;     C1 - O1          C - O     
     1      8   1 ;    1.3621e-01    2.9398e+05 ;     C1 - O2          C - x     
     2      5   1 ;    1.5354e-01    1.9154e+05 ;     C2 - C5         CT - CT    
     2      9   1 ;    1.0962e-01    2.8891e+05 ;     C2 - H1         CT - HC    
     2     10   1 ;    1.0962e-01    2.8891e+05 ;     C2 - H2         CT - HC    
     2     11   1 ;    1.0962e-01    2.8891e+05 ;     C2 - H3         CT - HC    
     3      6   1 ;    1.5354e-01    1.9154e+05 ;     C3 - C6         CT - CT    
     3     12   1 ;    1.0962e-01    2.8891e+05 ;     C3 - H4         CT - HC    
     3     13   1 ;    1.0962e-01    2.8891e+05 ;     C3 - H5         CT - HC    
     3     14   1 ;    1.0962e-01    2.8891e+05 ;     C3 - H6         CT - HC    
     4      5   1 ;    1.5354e-01    1.9154e+05 ;     C4 - C5         CT - CT    
     4     15   1 ;    1.0962e-01    2.8891e+05 ;     C4 - H7         CT - HC    
     4     16   1 ;    1.0962e-01    2.8891e+05 ;     C4 - H8         CT - HC    
     5     17   1 ;    1.0962e-01    2.8891e+05 ;     C5 - H9         CT - HC    
     5     18   1 ;    1.0962e-01    2.8891e+05 ;     C5 - H10        CT - HC    
     6      8   1 ;    1.4273e-01    2.3620e+05 ;     C6 - O2         CT - x     
     6     19   1 ;    1.0969e-01    2.8804e+05 ;     C6 - H11        CT - HC    
     6     20   1 ;    1.0969e-01    2.8804e+05 ;     C6 - H12        CT - HC    

[ pairs ]
;   ai     aj    funct
     1      2      1 ;     C1 - C2    
     1      3      1 ;     C1 - C3    
     1     17      1 ;     C1 - H9    
     1     18      1 ;     C1 - H10   
     1     19      1 ;     C1 - H11   
     1     20      1 ;     C1 - H12   
     2     15      1 ;     C2 - H7    
     2     16      1 ;     C2 - H8    
     4      6      1 ;     C4 - C6    
     4      9      1 ;     C4 - H1    
     4     10      1 ;     C4 - H2    
     4     11      1 ;     C4 - H3    
     7      5      1 ;     O1 - C5    
     7      6      1 ;     O1 - C6    
     7     15      1 ;     O1 - H7    
     7     16      1 ;     O1 - H8    
     8      5      1 ;     O2 - C5    
     8     12      1 ;     O2 - H4    
     8     13      1 ;     O2 - H5    
     8     14      1 ;     O2 - H6    
     8     15      1 ;     O2 - H7    
     8     16      1 ;     O2 - H8    
     9     17      1 ;     H1 - H9    
     9     18      1 ;     H1 - H10   
    10     17      1 ;     H2 - H9    
    10     18      1 ;     H2 - H10   
    11     17      1 ;     H3 - H9    
    11     18      1 ;     H3 - H10   
    12     19      1 ;     H4 - H11   
    12     20      1 ;     H4 - H12   
    13     19      1 ;     H5 - H11   
    13     20      1 ;     H5 - H12   
    14     19      1 ;     H6 - H11   
    14     20      1 ;     H6 - H12   
    15     17      1 ;     H7 - H9    
    15     18      1 ;     H7 - H10   
    16     17      1 ;     H8 - H9    
    16     18      1 ;     H8 - H10   

[ angles ]
;   ai     aj     ak    funct   theta         cth
     1      4      5      1 ;    1.1143e+02    5.0509e+02 ;     C1 - C4   - C5        C -   CT - CT  
     1      4     15      1 ;    1.0895e+02    3.6510e+02 ;     C1 - C4   - H7        C -   CT - HC  
     1      4     16      1 ;    1.0895e+02    3.6510e+02 ;     C1 - C4   - H8        C -   CT - HC  
     1      8      6      1 ;    1.1582e+02    7.4835e+02 ;     C1 - O2   - C6        C -    x - CT  
     2      5      4      1 ;    1.1263e+02    5.0099e+02 ;     C2 - C5   - C4       CT -   CT - CT  
     2      5     17      1 ;    1.0968e+02    3.6208e+02 ;     C2 - C5   - H9       CT -   CT - HC  
     2      5     18      1 ;    1.0968e+02    3.6208e+02 ;     C2 - C5   - H10      CT -   CT - HC  
     3      6      8      1 ;    1.0762e+02    6.4802e+02 ;     C3 - C6   - O2       CT -   CT - x   
     3      6     19      1 ;    1.0959e+02    3.6217e+02 ;     C3 - C6   - H11      CT -   CT - HC  
     3      6     20      1 ;    1.0959e+02    3.6217e+02 ;     C3 - C6   - H12      CT -   CT - HC  
     4      1      7      1 ;    1.2290e+02    6.3973e+02 ;     C4 - C1   - O1       CT -    C - O   
     4      1      8      1 ;    1.1080e+02    6.5245e+02 ;     C4 - C1   - O2       CT -    C - x   
     4      5     17      1 ;    1.0968e+02    3.6208e+02 ;     C4 - C5   - H9       CT -   CT - HC  
     4      5     18      1 ;    1.0968e+02    3.6208e+02 ;     C4 - C5   - H10      CT -   CT - HC  
     5      2      9      1 ;    1.0968e+02    3.6208e+02 ;     C5 - C2   - H1       CT -   CT - HC  
     5      2     10      1 ;    1.0968e+02    3.6208e+02 ;     C5 - C2   - H2       CT -   CT - HC  
     5      2     11      1 ;    1.0968e+02    3.6208e+02 ;     C5 - C2   - H3       CT -   CT - HC  
     5      4     15      1 ;    1.0968e+02    3.6208e+02 ;     C5 - C4   - H7       CT -   CT - HC  
     5      4     16      1 ;    1.0968e+02    3.6208e+02 ;     C5 - C4   - H8       CT -   CT - HC  
     6      3     12      1 ;    1.0968e+02    3.6208e+02 ;     C6 - C3   - H4       CT -   CT - HC  
     6      3     13      1 ;    1.0968e+02    3.6208e+02 ;     C6 - C3   - H5       CT -   CT - HC  
     6      3     14      1 ;    1.0968e+02    3.6208e+02 ;     C6 - C3   - H6       CT -   CT - HC  
     7      1      8      1 ;    1.2320e+02    8.4734e+02 ;     O1 - C1   - O2        O -    C - x   
     8      6     19      1 ;    1.1034e+02    4.7028e+02 ;     O2 - C6   - H11       x -   CT - HC  
     8      6     20      1 ;    1.1034e+02    4.7028e+02 ;     O2 - C6   - H12       x -   CT - HC  
     9      2     10      1 ;    1.0773e+02    2.9957e+02 ;     H1 - C2   - H2       HC -   CT - HC  
     9      2     11      1 ;    1.0773e+02    2.9957e+02 ;     H1 - C2   - H3       HC -   CT - HC  
    10      2     11      1 ;    1.0773e+02    2.9957e+02 ;     H2 - C2   - H3       HC -   CT - HC  
    12      3     13      1 ;    1.0773e+02    2.9957e+02 ;     H4 - C3   - H5       HC -   CT - HC  
    12      3     14      1 ;    1.0773e+02    2.9957e+02 ;     H4 - C3   - H6       HC -   CT - HC  
    13      3     14      1 ;    1.0773e+02    2.9957e+02 ;     H5 - C3   - H6       HC -   CT - HC  
    15      4     16      1 ;    1.0773e+02    2.9957e+02 ;     H7 - C4   - H8       HC -   CT - HC  
    17      5     18      1 ;    1.0773e+02    2.9957e+02 ;     H9 - C5   - H10      HC -   CT - HC  
    19      6     20      1 ;    1.0855e+02    2.9824e+02 ;    H11 - C6   - H12      HC -   CT - HC  

[ dihedrals ] ; propers
; for gromacs 4.5 or higher, using funct 9
;    i      j      k      l   func   phase     kd      pn
     1      4      5      2      9 ;     0.00   0.00000   0 ;     C1-    C4-    C5-    C2
     1      4      5      2      9 ;     0.00   0.16736   2 ;     C1-    C4-    C5-    C2
     1      4      5      2      9 ;   180.00   1.92464   1 ;     C1-    C4-    C5-    C2
     1      4      5     17      9 ;     0.00   0.65084   3 ;     C1-    C4-    C5-    H9
     1      4      5     18      9 ;     0.00   0.65084   3 ;     C1-    C4-    C5-   H10
     1      8      6      3      9 ;     0.00   1.60247   3 ;     C1-    O2-    C6-    C3
     1      8      6      3      9 ;   180.00   3.34720   1 ;     C1-    O2-    C6-    C3
     1      8      6     19      9 ;     0.00   1.60387   3 ;     C1-    O2-    C6-   H11
     1      8      6     20      9 ;     0.00   1.60387   3 ;     C1-    O2-    C6-   H12
     2      5      4     15      9 ;     0.00   0.54392   3 ;     C2-    C5-    C4-    H7
     2      5      4     16      9 ;     0.00   0.54392   3 ;     C2-    C5-    C4-    H8
     4      1      8      6      9 ;     0.00   3.13800   3 ;     C4-    C1-    O2-    C6
     4      1      8      6      9 ;   180.00   7.90776   1 ;     C4-    C1-    O2-    C6
     4      1      8      6      9 ;   180.00  13.76536   2 ;     C4-    C1-    O2-    C6
     4      5      2      9      9 ;     0.00   0.54392   3 ;     C4-    C5-    C2-    H1
     4      5      2     10      9 ;     0.00   0.54392   3 ;     C4-    C5-    C2-    H2
     4      5      2     11      9 ;     0.00   0.54392   3 ;     C4-    C5-    C2-    H3
     7      1      4      5      9 ;     0.00   2.84512   1 ;     O1-    C1-    C4-    C5
     7      1      4      5      9 ;   180.00   0.83680   2 ;     O1-    C1-    C4-    C5
     7      1      4      5      9 ;   180.00   1.84096   3 ;     O1-    C1-    C4-    C5
     7      1      4     15      9 ;     0.00  16.86152   1 ;     O1-    C1-    C4-    H7
     7      1      4     15      9 ;   180.00  15.31344   2 ;     O1-    C1-    C4-    H7
     7      1      4     16      9 ;     0.00  16.86152   1 ;     O1-    C1-    C4-    H8
     7      1      4     16      9 ;   180.00  15.31344   2 ;     O1-    C1-    C4-    H8
     7      1      8      6      9 ;   180.00   5.85760   1 ;     O1-    C1-    O2-    C6
     7      1      8      6      9 ;   180.00  11.29680   2 ;     O1-    C1-    O2-    C6
     8      1      4      5      9 ;   180.00   0.00000   2 ;     O2-    C1-    C4-    C5
     8      1      4     15      9 ;   180.00   0.00000   2 ;     O2-    C1-    C4-    H7
     8      1      4     16      9 ;   180.00   0.00000   2 ;     O2-    C1-    C4-    H8
     8      6      3     12      9 ;     0.00   0.00000   0 ;     O2-    C6-    C3-    H4
     8      6      3     12      9 ;     0.00   1.04600   1 ;     O2-    C6-    C3-    H4
     8      6      3     13      9 ;     0.00   0.00000   0 ;     O2-    C6-    C3-    H5
     8      6      3     13      9 ;     0.00   1.04600   1 ;     O2-    C6-    C3-    H5
     8      6      3     14      9 ;     0.00   0.00000   0 ;     O2-    C6-    C3-    H6
     8      6      3     14      9 ;     0.00   1.04600   1 ;     O2-    C6-    C3-    H6
     9      2      5     17      9 ;     0.00   0.50208   3 ;     H1-    C2-    C5-    H9
     9      2      5     18      9 ;     0.00   0.50208   3 ;     H1-    C2-    C5-   H10
    10      2      5     17      9 ;     0.00   0.50208   3 ;     H2-    C2-    C5-    H9
    10      2      5     18      9 ;     0.00   0.50208   3 ;     H2-    C2-    C5-   H10
    11      2      5     17      9 ;     0.00   0.50208   3 ;     H3-    C2-    C5-    H9
    11      2      5     18      9 ;     0.00   0.50208   3 ;     H3-    C2-    C5-   H10
    12      3      6     19      9 ;     0.00   0.65084   3 ;     H4-    C3-    C6-   H11
    12      3      6     20      9 ;     0.00   0.65084   3 ;     H4-    C3-    C6-   H12
    13      3      6     19      9 ;     0.00   0.65084   3 ;     H5-    C3-    C6-   H11
    13      3      6     20      9 ;     0.00   0.65084   3 ;     H5-    C3-    C6-   H12
    14      3      6     19      9 ;     0.00   0.65084   3 ;     H6-    C3-    C6-   H11
    14      3      6     20      9 ;     0.00   0.65084   3 ;     H6-    C3-    C6-   H12
    15      4      5     17      9 ;     0.00   0.50208   3 ;     H7-    C4-    C5-    H9
    15      4      5     18      9 ;     0.00   0.50208   3 ;     H7-    C4-    C5-   H10
    16      4      5     17      9 ;     0.00   0.50208   3 ;     H8-    C4-    C5-    H9
    16      4      5     18      9 ;     0.00   0.50208   3 ;     H8-    C4-    C5-   H10

[ dihedrals ] ; impropers
; treated as propers in GROMACS to use correct AMBER analytical function
;    i      j      k      l   func   phase     kd      pn
     8      1      7      4      4 ;   180.00   4.60240   2 ;     O2-    C1-    O1-    C4
