; mobley_1722522_GMX_OPLS.top created by acpype (v: 2023.10.27) on Wed May 20 23:51:36 2026

; Include forcefield parameters
#include "ffoplsaa.itp"

; Include mobley_1722522_GMX.itp topology
#include "mobley_1722522_GMX.itp"

; Ligand position restraints
#ifdef POSRES_LIG
#include "posre_mobley_1722522.itp"
#endif

[ system ]
 mobley_1722522

[ molecules ]
; Compound        nmols
 mobley_1722522   1     
