ethyl_butanoate
    20
   2.6750000  -0.7720000   3.1240000  -0.3780000  -0.6940000   0.7530000
   6.2700000  -1.3320000   3.5400000   1.8850000  -0.8880000   1.8410000
   0.4000000  -0.6070000   2.0560000   4.8660000  -0.9910000   3.9910000
   2.2090000  -0.4720000   4.2150000   3.9850000  -1.0580000   2.8640000
  -1.4380000  -0.4880000   0.9300000  -0.0070000   0.0340000   0.0250000
  -0.2950000  -1.6930000   0.3130000   6.9700000  -1.2900000   4.3790000
   6.3020000  -2.3360000   3.1030000   6.6060000  -0.6360000   2.7640000
   2.2960000  -0.1720000   1.1210000   2.0160000  -1.9030000   1.4490000
  -0.0160000  -1.3230000   2.7740000   0.2670000   0.3910000   2.4910000
   4.8310000   0.0210000   4.4060000   4.5230000  -1.7020000   4.7490000
