%VERSION  VERSION_STAMP = V0001.000  DATE = 05/20/26  23:51:44                  
%FLAG TITLE                                                                     
%FORMAT(20a4)                                                                   
ethyl_butanoate                                                                 
%FLAG POINTERS                                                                  
%FORMAT(10I8)                                                                   
      20       6      12       7      27       7      37      15       0       0
      93       1       7       7      15       7      13      22       6       0
       0       0       0       0       0       0       0       0      20       0
       0
%FLAG ATOM_NAME                                                                 
%FORMAT(20a4)                                                                   
C1  C2  C3  C4  C5  C6  O1  O2  H1  H2  H3  H4  H5  H6  H7  H8  H9  H10 H11 H12 
%FLAG CHARGE                                                                    
%FORMAT(5E16.8)                                                                 
  1.15000935E+01 -1.71471843E+00 -1.82405223E+00 -2.32152102E+00 -1.44685062E+00
  2.52196632E+00 -9.93115350E+00 -8.12532357E+00  6.74826436E-01  6.74826436E-01
  6.74826436E-01  8.63135684E-01  8.63135684E-01  8.63135684E-01  1.41587271E+00
  1.41587271E+00  1.03320441E+00  1.03320441E+00  9.32981760E-01  9.32981760E-01
%FLAG ATOMIC_NUMBER                                                             
%FORMAT(10I8)                                                                   
       6       6       6       6       6       6       8       8       1       1
       1       1       1       1       1       1       1       1       1       1
%FLAG MASS                                                                      
%FORMAT(5E16.8)                                                                 
  1.20100000E+01  1.20100000E+01  1.20100000E+01  1.20100000E+01  1.20100000E+01
  1.20100000E+01  1.60000000E+01  1.60000000E+01  1.00800000E+00  1.00800000E+00
  1.00800000E+00  1.00800000E+00  1.00800000E+00  1.00800000E+00  1.00800000E+00
  1.00800000E+00  1.00800000E+00  1.00800000E+00  1.00800000E+00  1.00800000E+00
%FLAG ATOM_TYPE_INDEX                                                           
%FORMAT(10I8)                                                                   
       1       2       2       2       2       2       3       4       5       5
       5       5       5       5       5       5       5       5       6       6
%FLAG NUMBER_EXCLUDED_ATOMS                                                     
%FORMAT(10I8)                                                                   
      13       9       7      11       9       7       3       7       4       3
       2       4       3       2       3       2       1       1       1       1
%FLAG NONBONDED_PARM_INDEX                                                      
%FORMAT(10I8)                                                                   
       1       2       4       7      11      16       2       3       5       8
      12      17       4       5       6       9      13      18       7       8
       9      10      14      19      11      12      13      14      15      20
      16      17      18      19      20      21
%FLAG RESIDUE_LABEL                                                             
%FORMAT(20a4)                                                                   
MOL 
%FLAG RESIDUE_POINTER                                                           
%FORMAT(10I8)                                                                   
       1
%FLAG BOND_FORCE_CONSTANT                                                       
%FORMAT(5E16.8)                                                                 
  2.34850000E+02  5.90600000E+02  3.51310000E+02  2.28890000E+02  3.45250000E+02
  2.82270000E+02  3.44220000E+02
%FLAG BOND_EQUIL_VALUE                                                          
%FORMAT(5E16.8)                                                                 
  1.52700000E+00  1.21900000E+00  1.36210000E+00  1.53540000E+00  1.09620000E+00
  1.42730000E+00  1.09690000E+00
%FLAG ANGLE_FORCE_CONSTANT                                                      
%FORMAT(5E16.8)                                                                 
  6.03600000E+01  4.36300000E+01  8.94300000E+01  5.98700000E+01  4.32700000E+01
  7.74400000E+01  4.32800000E+01  7.64500000E+01  7.79700000E+01  1.01260000E+02
  5.62000000E+01  3.58000000E+01  3.56400000E+01
%FLAG ANGLE_EQUIL_VALUE                                                         
%FORMAT(5E16.8)                                                                 
  1.94482122E+00  1.90153704E+00  2.02144121E+00  1.96576518E+00  1.91427794E+00
  1.87832415E+00  1.91270715E+00  2.14501057E+00  1.93382564E+00  2.15024656E+00
  1.92579712E+00  1.88024401E+00  1.89455572E+00
%FLAG DIHEDRAL_FORCE_CONSTANT                                                   
%FORMAT(5E16.8)                                                                 
  4.60000000E-01  4.00000000E-02  0.00000000E+00  1.55555556E-01  8.00000000E-01
  3.83000000E-01  3.83333333E-01  1.30000000E-01  1.89000000E+00  3.29000000E+00
  7.50000000E-01  6.80000000E-01  2.00000000E-01  4.40000000E-01  0.00000000E+00
  1.40000000E+00  2.70000000E+00  4.03000000E+00  3.66000000E+00  2.50000000E-01
  1.20000000E-01  1.10000000E+00
%FLAG DIHEDRAL_PERIODICITY                                                      
%FORMAT(5E16.8)                                                                 
  1.00000000E+00  2.00000000E+00  3.00000000E+00  3.00000000E+00  1.00000000E+00
  3.00000000E+00  3.00000000E+00  3.00000000E+00  1.00000000E+00  2.00000000E+00
  3.00000000E+00  1.00000000E+00  2.00000000E+00  3.00000000E+00  2.00000000E+00
  1.00000000E+00  2.00000000E+00  1.00000000E+00  2.00000000E+00  1.00000000E+00
  3.00000000E+00  2.00000000E+00
%FLAG DIHEDRAL_PHASE                                                            
%FORMAT(5E16.8)                                                                 
  3.14159400E+00  0.00000000E+00  0.00000000E+00  0.00000000E+00  3.14159400E+00
  0.00000000E+00  0.00000000E+00  0.00000000E+00  3.14159400E+00  3.14159400E+00
  0.00000000E+00  0.00000000E+00  3.14159400E+00  3.14159400E+00  3.14159400E+00
  3.14159400E+00  3.14159400E+00  0.00000000E+00  3.14159400E+00  0.00000000E+00
  0.00000000E+00  3.14159400E+00
%FLAG SCEE_SCALE_FACTOR                                                         
%FORMAT(5E16.8)                                                                 
  1.20000000E+00  1.20000000E+00  1.20000000E+00  1.20000000E+00  1.20000000E+00
  1.20000000E+00  1.20000000E+00  1.20000000E+00  1.20000000E+00  1.20000000E+00
  1.20000000E+00  1.20000000E+00  1.20000000E+00  1.20000000E+00  1.20000000E+00
  1.20000000E+00  1.20000000E+00  1.20000000E+00  1.20000000E+00  1.20000000E+00
  1.20000000E+00  0.00000000E+00
%FLAG SCNB_SCALE_FACTOR                                                         
%FORMAT(5E16.8)                                                                 
  2.00000000E+00  2.00000000E+00  2.00000000E+00  2.00000000E+00  2.00000000E+00
  2.00000000E+00  2.00000000E+00  2.00000000E+00  2.00000000E+00  2.00000000E+00
  2.00000000E+00  2.00000000E+00  2.00000000E+00  2.00000000E+00  2.00000000E+00
  2.00000000E+00  2.00000000E+00  2.00000000E+00  2.00000000E+00  2.00000000E+00
  2.00000000E+00  0.00000000E+00
%FLAG SOLTY                                                                     
%FORMAT(5E16.8)                                                                 
  0.00000000E+00  0.00000000E+00  0.00000000E+00  0.00000000E+00  0.00000000E+00
  0.00000000E+00
%FLAG LENNARD_JONES_ACOEF                                                       
%FORMAT(5E16.8)                                                                 
  6.96551276E+05  8.43969952E+05  1.02073671E+06  5.17507491E+05  6.30925504E+05
  3.76435470E+05  4.46121722E+05  5.42502534E+05  3.27367585E+05  2.83662575E+05
  8.12662403E+04  1.00235148E+05  5.68021765E+04  5.02224902E+04  7.94617769E+03
  5.63013422E+04  6.97998263E+04  3.86646725E+04  3.44374471E+04  5.22955465E+03
  3.39005767E+03
%FLAG LENNARD_JONES_BCOEF                                                       
%FORMAT(5E16.8)                                                                 
  5.24668528E+02  5.90251928E+02  6.63431737E+02  4.98871431E+02  5.62969425E+02
  4.69350655E+02  3.88758656E+02  4.38146883E+02  3.67361018E+02  2.87011518E+02
  1.21392023E+02  1.37787728E+02  1.11953944E+02  8.83545880E+01  2.57122925E+01
  1.01040256E+02  1.14981426E+02  9.23664132E+01  7.31636661E+01  2.08590256E+01
  1.67944276E+01
%FLAG BONDS_INC_HYDROGEN                                                        
%FORMAT(10I8)                                                                   
       3      24       5       3      27       5       3      30       5       6
      33       5       6      36       5       6      39       5       9      42
       5       9      45       5      12      48       5      12      51       5
      15      54       7      15      57       7
%FLAG BONDS_WITHOUT_HYDROGEN                                                    
%FORMAT(10I8)                                                                   
       0       9       1       0      18       2       0      21       3       3
      12       4       6      15       4       9      12       4      15      21
       6
%FLAG ANGLES_INC_HYDROGEN                                                       
%FORMAT(10I8)                                                                   
       0       9      42       2       0       9      45       2       3      12
      48       5       3      12      51       5       6      15      54       7
       6      15      57       7       9      12      48       5       9      12
      51       5      12       3      24       5      12       3      27       5
      12       3      30       5      12       9      42       5      12       9
      45       5      15       6      33       5      15       6      36       5
      15       6      39       5      21      15      54      11      21      15
      57      11      24       3      27      12      24       3      30      12
      27       3      30      12      33       6      36      12      33       6
      39      12      36       6      39      12      42       9      45      12
      48      12      51      12      54      15      57      13
%FLAG ANGLES_WITHOUT_HYDROGEN                                                   
%FORMAT(10I8)                                                                   
       0       9      12       1       0      21      15       3       3      12
       9       4       6      15      21       6       9       0      18       8
       9       0      21       9      18       0      21      10
%FLAG DIHEDRALS_INC_HYDROGEN                                                    
%FORMAT(10I8)                                                                   
       0       9      12      48       4       0       9      12      51       4
       0      21      15      54       7       0      21      15      57       7
       3      12       9      42       8       3      12       9      45       8
       9      12       3      24       8       9      12       3      27       8
       9      12       3      30       8      18       0       9      42      18
      18       0      -9      42      19      18       0       9      45      18
      18       0      -9      45      19      21       0       9      42      15
      21       0       9      45      15      21      15       6      33      20
      21      15      -6      33       3      21      15       6      36      20
      21      15      -6      36       3      21      15       6      39      20
      21      15      -6      39       3      24       3      12      48      21
      24       3      12      51      21      27       3      12      48      21
      27       3      12      51      21      30       3      12      48      21
      30       3      12      51      21      33       6      15      54       4
      33       6      15      57       4      36       6      15      54       4
      36       6      15      57       4      39       6      15      54       4
      39       6      15      57       4      42       9      12      48      21
      42       9      12      51      21      45       9      12      48      21
      45       9      12      51      21
%FLAG DIHEDRALS_WITHOUT_HYDROGEN                                                
%FORMAT(10I8)                                                                   
       0       9      12       3       1       0       9     -12       3       2
       0       9     -12       3       3       0      21      15       6       5
       0      21     -15       6       6       9       0      21      15       9
       9       0     -21      15      10       9       0     -21      15      11
      18       0       9      12      12      18       0      -9      12      13
      18       0      -9      12      14      21       0       9      12      15
      18       0      21      15      16      18       0     -21      15      17
      21       0     -18      -9      22
%FLAG EXCLUDED_ATOMS_LIST                                                       
%FORMAT(10I8)                                                                   
       2       3       4       5       6       7       8      15      16      17
      18      19      20       4       5       9      10      11      15      16
      17      18       6       8      12      13      14      19      20       5
       6       7       8       9      10      11      15      16      17      18
       7       8       9      10      11      15      16      17      18       7
       8      12      13      14      19      20       8      15      16      12
      13      14      15      16      19      20      10      11      17      18
      11      17      18      17      18      13      14      19      20      14
      19      20      19      20      16      17      18      17      18      18
       0      20       0
%FLAG HBOND_ACOEF                                                               
%FORMAT(5E16.8)                                                                 

%FLAG HBOND_BCOEF                                                               
%FORMAT(5E16.8)                                                                 

%FLAG HBCUT                                                                     
%FORMAT(5E16.8)                                                                 

%FLAG AMBER_ATOM_TYPE                                                           
%FORMAT(20a4)                                                                   
c   c3  c3  c3  c3  c3  o   os  hc  hc  hc  hc  hc  hc  hc  hc  hc  hc  h1  h1  
%FLAG TREE_CHAIN_CLASSIFICATION                                                 
%FORMAT(20a4)                                                                   
BLA BLA BLA BLA BLA BLA BLA BLA BLA BLA BLA BLA BLA BLA BLA BLA BLA BLA BLA BLA 
%FLAG JOIN_ARRAY                                                                
%FORMAT(10I8)                                                                   
       0       0       0       0       0       0       0       0       0       0
       0       0       0       0       0       0       0       0       0       0
%FLAG IROTAT                                                                    
%FORMAT(10I8)                                                                   
       0       0       0       0       0       0       0       0       0       0
       0       0       0       0       0       0       0       0       0       0
%FLAG RADIUS_SET                                                                
%FORMAT(1a80)                                                                   
modified Bondi radii (mbondi)                                                   
%FLAG RADII                                                                     
%FORMAT(5E16.8)                                                                 
  1.70000000E+00  1.70000000E+00  1.70000000E+00  1.70000000E+00  1.70000000E+00
  1.70000000E+00  1.50000000E+00  1.50000000E+00  1.30000000E+00  1.30000000E+00
  1.30000000E+00  1.30000000E+00  1.30000000E+00  1.30000000E+00  1.30000000E+00
  1.30000000E+00  1.30000000E+00  1.30000000E+00  1.30000000E+00  1.30000000E+00
%FLAG SCREEN                                                                    
%FORMAT(5E16.8)                                                                 
  7.20000000E-01  7.20000000E-01  7.20000000E-01  7.20000000E-01  7.20000000E-01
  7.20000000E-01  8.50000000E-01  8.50000000E-01  8.50000000E-01  8.50000000E-01
  8.50000000E-01  8.50000000E-01  8.50000000E-01  8.50000000E-01  8.50000000E-01
  8.50000000E-01  8.50000000E-01  8.50000000E-01  8.50000000E-01  8.50000000E-01
%FLAG IPOL                                                                      
%FORMAT(1I8)                                                                    
       0
