; mobley_1527293_GMX_OPLS.top created by acpype (v: 2023.10.27) on Thu May 21 00:04:11 2026

; Include forcefield parameters
#include "ffoplsaa.itp"

; Include mobley_1527293_GMX.itp topology
#include "mobley_1527293_GMX.itp"

; Ligand position restraints
#ifdef POSRES_LIG
#include "posre_mobley_1527293.itp"
#endif

[ system ]
 mobley_1527293

[ molecules ]
; Compound        nmols
 mobley_1527293   1     
