flurbiprofen
    31
   1.8850000  -1.0360000  -0.1130000   1.8400000   0.1610000   0.6020000
   1.8870000  -2.2550000   0.5670000   1.7980000   0.1400000   1.9960000
   1.8440000  -2.2760000   1.9610000   0.6750000  -0.5260000   4.7900000
   0.6270000  -0.5450000   6.1840000   2.7410000  -1.7140000   6.2410000
   1.8000000  -1.0790000   2.6760000   1.7550000  -1.1010000   4.1220000
   1.6600000  -1.1390000   6.9100000   2.7890000  -1.6940000   4.8470000
   1.5430000  -2.5810000   8.9680000   2.7760000  -0.4040000   9.0700000
   1.6100000  -1.1590000   8.4000000   1.5540000  -3.5980000   8.2870000
   1.4600000  -2.6100000  10.3250000   3.8340000  -2.2510000   4.2180000
   1.9180000  -1.0200000  -1.1980000   1.8390000   1.1090000   0.0730000
   1.9210000  -3.1860000   0.0100000   1.7640000   1.0810000   2.5400000
   1.8470000  -3.2330000   2.4770000  -0.1380000  -0.0580000   4.2400000
  -0.2190000  -0.0950000   6.6970000   3.5510000  -2.1780000   6.7970000
   3.7460000  -0.8360000   8.7970000   2.7740000   0.6500000   8.7720000
   2.7110000  -0.4420000  10.1630000   0.6800000  -0.6560000   8.7320000
   1.4090000  -3.5050000  10.7230000
