mobley_1527293_GMX.gro created by acpype (v: 2023.10.27) on Thu May 21 00:04:11 2026
 31
    1  MOL   C1    1   0.189  -0.104  -0.011
    1  MOL   C2    2   0.184   0.016   0.060
    1  MOL   C3    3   0.189  -0.226   0.057
    1  MOL   C4    4   0.180   0.014   0.200
    1  MOL   C5    5   0.184  -0.228   0.196
    1  MOL   C6    6   0.068  -0.053   0.479
    1  MOL   C7    7   0.063  -0.055   0.618
    1  MOL   C8    8   0.274  -0.171   0.624
    1  MOL   C9    9   0.180  -0.108   0.268
    1  MOL  C10   10   0.175  -0.110   0.412
    1  MOL  C11   11   0.166  -0.114   0.691
    1  MOL  C12   12   0.279  -0.169   0.485
    1  MOL  C13   13   0.154  -0.258   0.897
    1  MOL  C14   14   0.278  -0.040   0.907
    1  MOL  C15   15   0.161  -0.116   0.840
    1  MOL   O1   16   0.155  -0.360   0.829
    1  MOL   O2   17   0.146  -0.261   1.032
    1  MOL   F1   18   0.383  -0.225   0.422
    1  MOL   H1   19   0.192  -0.102  -0.120
    1  MOL   H2   20   0.184   0.111   0.007
    1  MOL   H3   21   0.192  -0.319   0.001
    1  MOL   H4   22   0.176   0.108   0.254
    1  MOL   H5   23   0.185  -0.323   0.248
    1  MOL   H6   24  -0.014  -0.006   0.424
    1  MOL   H7   25  -0.022  -0.010   0.670
    1  MOL   H8   26   0.355  -0.218   0.680
    1  MOL   H9   27   0.375  -0.084   0.880
    1  MOL  H10   28   0.277   0.065   0.877
    1  MOL  H11   29   0.271  -0.044   1.016
    1  MOL  H12   30   0.068  -0.066   0.873
    1  MOL  H13   31   0.141  -0.351   1.072
    8.10600     9.41400    23.84200
