%VERSION  VERSION_STAMP = V0001.000  DATE = 05/21/26  00:04:26                  
%FLAG TITLE                                                                     
%FORMAT(20a4)                                                                   
flurbiprofen                                                                    
%FLAG POINTERS                                                                  
%FORMAT(10I8)                                                                   
      31       8      13      19      26      26      52      40       0       0
     159       1      19      26      40      12      20      17      10       0
       0       0       0       0       0       0       0       0      31       0
       0
%FLAG ATOM_NAME                                                                 
%FORMAT(20a4)                                                                   
C1  C2  C3  C4  C5  C6  C7  C8  C9  C10 C11 C12 C13 C14 C15 O1  O2  F1  H1  H2  
H3  H4  H5  H6  H7  H8  H9  H10 H11 H12 H13 
%FLAG CHARGE                                                                    
%FORMAT(5E16.8)                                                                 
 -2.22312060E+00 -2.39623245E+00 -2.39623245E+00 -2.00445300E+00 -2.00445300E+00
 -1.85867460E+00 -2.40534360E+00 -2.80623420E+00 -8.20003500E-01 -1.05689340E+00
 -1.22636079E+00  2.49463287E+00  1.16640942E+01 -1.67827383E+00 -1.06418232E+00
 -9.98582040E+00 -1.10263137E+01 -2.43996597E+00  2.42356590E+00  2.44178820E+00
  2.44178820E+00  2.50556625E+00  2.50556625E+00  2.62401120E+00  2.53289970E+00
  3.13423560E+00  9.66383236E-01  9.66383236E-01  9.66383236E-01  1.63454031E+00
  8.10892350E+00
%FLAG ATOMIC_NUMBER                                                             
%FORMAT(10I8)                                                                   
       6       6       6       6       6       6       6       6       6       6
       6       6       6       6       6       8       8       9       1       1
       1       1       1       1       1       1       1       1       1       1
       1
%FLAG MASS                                                                      
%FORMAT(5E16.8)                                                                 
  1.20100000E+01  1.20100000E+01  1.20100000E+01  1.20100000E+01  1.20100000E+01
  1.20100000E+01  1.20100000E+01  1.20100000E+01  1.20100000E+01  1.20100000E+01
  1.20100000E+01  1.20100000E+01  1.20100000E+01  1.20100000E+01  1.20100000E+01
  1.60000000E+01  1.60000000E+01  1.90000000E+01  1.00800000E+00  1.00800000E+00
  1.00800000E+00  1.00800000E+00  1.00800000E+00  1.00800000E+00  1.00800000E+00
  1.00800000E+00  1.00800000E+00  1.00800000E+00  1.00800000E+00  1.00800000E+00
  1.00800000E+00
%FLAG ATOM_TYPE_INDEX                                                           
%FORMAT(10I8)                                                                   
       1       1       1       1       1       1       1       1       1       1
       1       1       1       2       2       3       4       5       6       6
       6       6       6       6       6       6       7       7       7       7
       8
%FLAG NUMBER_EXCLUDED_ATOMS                                                     
%FORMAT(10I8)                                                                   
      10       9       8       9       8      10      12      11       8       8
      14       4       9       7       9       3       2       1       2       1
       1       1       1       1       1       1       3       2       1       1
       1
%FLAG NONBONDED_PARM_INDEX                                                      
%FORMAT(10I8)                                                                   
       1       2       4       7      11      16      22      29       2       3
       5       8      12      17      23      30       4       5       6       9
      13      18      24      31       7       8       9      10      14      19
      25      32      11      12      13      14      15      20      26      33
      16      17      18      19      20      21      27      34      22      23
      24      25      26      27      28      35      29      30      31      32
      33      34      35      36
%FLAG RESIDUE_LABEL                                                             
%FORMAT(20a4)                                                                   
MOL 
%FLAG RESIDUE_POINTER                                                           
%FORMAT(10I8)                                                                   
       1
%FLAG BOND_FORCE_CONSTANT                                                       
%FORMAT(5E16.8)                                                                 
  3.54250000E+02  3.60690000E+02  3.46070000E+02  2.69370000E+02  2.43910000E+02
  3.35440000E+02  2.34850000E+02  5.90600000E+02  3.59270000E+02  2.28890000E+02
  3.45250000E+02  5.35510000E+02
%FLAG BOND_EQUIL_VALUE                                                          
%FORMAT(5E16.8)                                                                 
  1.39860000E+00  1.08600000E+00  1.40560000E+00  1.48290000E+00  1.51470000E+00
  1.35020000E+00  1.52700000E+00  1.21900000E+00  1.35560000E+00  1.53540000E+00
  1.09620000E+00  9.72500000E-01
%FLAG ANGLE_FORCE_CONSTANT                                                      
%FORMAT(5E16.8)                                                                 
  6.36700000E+01  4.49000000E+01  6.33300000E+01  6.37900000E+01  6.13000000E+01
  6.07400000E+01  8.05500000E+01  4.47300000E+01  8.01800000E+01  6.08400000E+01
  6.03300000E+01  4.36100000E+01  6.03600000E+01  4.36300000E+01  6.84600000E+01
  4.32700000E+01  7.64500000E+01  7.74200000E+01  1.02030000E+02  3.58000000E+01
%FLAG ANGLE_EQUIL_VALUE                                                         
%FORMAT(5E16.8)                                                                 
  2.09474507E+00  2.09230160E+00  2.10713691E+00  2.06664525E+00  2.11359463E+00
  2.10888224E+00  2.07624457E+00  2.09125441E+00  2.08444762E+00  1.94010883E+00
  1.96209999E+00  1.93085858E+00  1.94482122E+00  1.90153704E+00  1.85947458E+00
  1.91427794E+00  2.14501057E+00  1.96768504E+00  2.13087340E+00  1.88024401E+00
%FLAG DIHEDRAL_FORCE_CONSTANT                                                   
%FORMAT(5E16.8)                                                                 
  3.62500000E+00  7.65000000E-01  0.00000000E+00  2.40000000E-01  0.00000000E+00
  0.00000000E+00  1.55555556E-01  6.80000000E-01  2.00000000E-01  4.40000000E-01
  1.80000000E+00  4.03000000E+00  3.66000000E+00  1.90000000E+00  2.30000000E+00
  1.20000000E-01  1.10000000E+00
%FLAG DIHEDRAL_PERIODICITY                                                      
%FORMAT(5E16.8)                                                                 
  2.00000000E+00  2.00000000E+00  2.00000000E+00  2.00000000E+00  1.00000000E+00
  2.00000000E+00  3.00000000E+00  1.00000000E+00  2.00000000E+00  3.00000000E+00
  2.00000000E+00  1.00000000E+00  2.00000000E+00  1.00000000E+00  2.00000000E+00
  3.00000000E+00  2.00000000E+00
%FLAG DIHEDRAL_PHASE                                                            
%FORMAT(5E16.8)                                                                 
  3.14159400E+00  3.14159400E+00  0.00000000E+00  3.14159400E+00  0.00000000E+00
  3.14159400E+00  0.00000000E+00  0.00000000E+00  3.14159400E+00  3.14159400E+00
  3.14159400E+00  0.00000000E+00  3.14159400E+00  0.00000000E+00  3.14159400E+00
  0.00000000E+00  3.14159400E+00
%FLAG SCEE_SCALE_FACTOR                                                         
%FORMAT(5E16.8)                                                                 
  1.20000000E+00  1.20000000E+00  1.20000000E+00  1.20000000E+00  1.20000000E+00
  1.20000000E+00  1.20000000E+00  1.20000000E+00  1.20000000E+00  1.20000000E+00
  1.20000000E+00  1.20000000E+00  1.20000000E+00  1.20000000E+00  1.20000000E+00
  1.20000000E+00  0.00000000E+00
%FLAG SCNB_SCALE_FACTOR                                                         
%FORMAT(5E16.8)                                                                 
  2.00000000E+00  2.00000000E+00  2.00000000E+00  2.00000000E+00  2.00000000E+00
  2.00000000E+00  2.00000000E+00  2.00000000E+00  2.00000000E+00  2.00000000E+00
  2.00000000E+00  2.00000000E+00  2.00000000E+00  2.00000000E+00  2.00000000E+00
  2.00000000E+00  0.00000000E+00
%FLAG SOLTY                                                                     
%FORMAT(5E16.8)                                                                 
  0.00000000E+00  0.00000000E+00  0.00000000E+00  0.00000000E+00  0.00000000E+00
  0.00000000E+00  0.00000000E+00  0.00000000E+00  0.00000000E+00  0.00000000E+00
%FLAG LENNARD_JONES_ACOEF                                                       
%FORMAT(5E16.8)                                                                 
  6.96551276E+05  8.43969952E+05  1.02073671E+06  5.17507491E+05  6.30925504E+05
  3.76435470E+05  5.92438683E+05  7.18991463E+05  4.37717034E+05  5.03152404E+05
  3.80155513E+05  4.63627012E+05  2.76207447E+05  3.21445185E+05  2.02652992E+05
  7.52549148E+04  9.27554496E+04  5.27277400E+04  6.30298721E+04  3.86097375E+04
  6.90855956E+03  8.12662403E+04  1.00235148E+05  5.68021765E+04  6.80216136E+04
  4.15877422E+04  7.41026906E+03  7.94617769E+03  2.25372434E+02  3.03553352E+02
  1.15813907E+02  1.74176419E+02  8.33610614E+01  8.53132435E+00  8.80612241E+00
  1.10360882E-05
%FLAG LENNARD_JONES_BCOEF                                                       
%FORMAT(5E16.8)                                                                 
  5.24668528E+02  5.90251928E+02  6.63431737E+02  4.98871431E+02  5.62969425E+02
  4.69350655E+02  4.76608379E+02  5.36620538E+02  4.51916854E+02  4.32634597E+02
  3.71304925E+02  4.19082844E+02  3.49131956E+02  3.36306318E+02  2.59697739E+02
  1.09570372E+02  1.24325688E+02  1.01173582E+02  9.87712192E+01  7.51823196E+01
  2.10929191E+01  1.21392023E+02  1.37787728E+02  1.11953944E+02  1.09393126E+02
  8.31877412E+01  2.32899892E+01  2.57122925E+01  4.40751799E+00  5.22789272E+00
  3.48534600E+00  3.81654050E+00  2.56783379E+00  5.44840215E-01  5.90150328E-01
  4.55498033E-04
%FLAG BONDS_INC_HYDROGEN                                                        
%FORMAT(10I8)                                                                   
       0      54       2       3      57       2       6      60       2       9
      63       2      12      66       2      15      69       2      18      72
       2      21      75       2      39      78      11      39      81      11
      39      84      11      42      87      11      48      90      12
%FLAG BONDS_WITHOUT_HYDROGEN                                                    
%FORMAT(10I8)                                                                   
       0       3       1       0       6       1       3       9       1       6
      12       1       9      24       3      12      24       3      15      18
       1      15      27       3      18      30       1      21      30       1
      21      33       1      24      27       4      27      33       3      30
      42       5      33      51       6      36      42       7      36      45
       8      36      48       9      39      42      10
%FLAG ANGLES_INC_HYDROGEN                                                       
%FORMAT(10I8)                                                                   
       0       3      57       2       0       6      60       2       3       0
      54       2       3       9      63       2       6       0      54       2
       6      12      66       2       9       3      57       2      12       6
      60       2      15      18      72       2      18      15      69       2
      24       9      63       8      24      12      66       8      27      15
      69       8      30      18      72       2      30      21      75       2
      30      42      87      12      33      21      75       2      36      42
      87      14      36      48      90      15      39      42      87      16
      42      39      78      16      42      39      81      16      42      39
      84      16      78      39      81      20      78      39      84      20
      81      39      84      20
%FLAG ANGLES_WITHOUT_HYDROGEN                                                   
%FORMAT(10I8)                                                                   
       0       3       9       1       0       6      12       1       3       0
       6       1       3       9      24       3       6      12      24       3
       9      24      12       4       9      24      27       5      12      24
      27       5      15      18      30       1      15      27      24       5
      15      27      33       4      18      15      27       3      18      30
      21       1      18      30      42       6      21      30      42       6
      21      33      27       3      21      33      51       7      24      27
      33       5      27      33      51       9      30      21      33       1
      30      42      36      10      30      42      39      11      36      42
      39      13      42      36      45      17      42      36      48      18
      45      36      48      19
%FLAG DIHEDRALS_INC_HYDROGEN                                                    
%FORMAT(10I8)                                                                   
       0       3       9      63       1       0       6      12      66       1
       3       0       6      60       1       6       0       3      57       1
      54       0       3       9       1       9      24      12      66       1
      54       0       6      12       1      12      24       9      63       1
      18      30      21      75       1      18      30      42      87       5
      21      30      18      72       1      21      30      42      87       5
      24       9       3      57       1      24      12       6      60       1
      24      27      15      69       1      27      15      18      72       1
      27      24       9      63       1      27      24      12      66       1
      27      33      21      75       1      30      18      15      69       1
      30      42      39      78       7      30      42      39      81       7
      30      42      39      84       7      33      27      15      69       1
      36      42      39      78       7      36      42      39      81       7
      36      42      39      84       7      42      30      18      72       1
      42      30      21      75       1      42      36      48      90      11
      45      36      42      87      12      45      36     -42      87      13
      45      36      48      90      14      45      36     -48      90      15
      48      36      42      87       6      51      33      21      75       1
      54       0       3      57       1      54       0       6      60       1
      57       3       9      63       1      60       6      12      66       1
      69      15      18      72       1      78      39      42      87      16
      81      39      42      87      16      84      39      42      87      16
      54       0      -6      -3      17       0       9      -3     -57      17
       0      12      -6     -60      17       3      24      -9     -63      17
       6      24     -12     -66      17      18      27     -15     -69      17
      15      30     -18     -72      17      30      33     -21     -75      17
%FLAG DIHEDRALS_WITHOUT_HYDROGEN                                                
%FORMAT(10I8)                                                                   
       0       3       9      24       1       0       6     -12      24       1
       3       0       6      12       1       3       9     -24      12       1
       3       9      24      27       1       6       0       3       9       1
       6      12     -24       9       1       6      12      24      27       1
       9      24      27      15       2       9      24      27      33       2
      12      24      27      15       2      12      24      27      33       2
      15      18      30      21       1      15      18      30      42       1
      15      27     -33      21       1      15      27      33      51       1
      18      15      27      24       1      18      15      27      33       1
      18      30     -21      33       1      18      30      42      36       3
      18      30      42      39       4      21      30      42      36       3
      21      30      42      39       4      21      33      27      24       1
      24      27      33      51       1      27      15      18      30       1
      27      33     -21      30       1      30      21      33      51       1
      30      42      36      45       6      30      42      36      48       6
      33      21      30      42       1      39      42      36      45       8
      39      42     -36      45       9      39      42     -36      45      10
      39      42      36      48       6       9      12     -24     -27      17
      15      33     -27     -24      17      18      21     -30     -42      17
      21      27     -33     -51      17      42      45     -36     -48      17
%FLAG EXCLUDED_ATOMS_LIST                                                       
%FORMAT(10I8)                                                                   
       2       3       4       5       9      19      20      21      22      23
       3       4       5       9      10      19      20      21      22       4
       5       9      10      19      20      21      23       5       6       9
      10      12      19      20      22      23       6       9      10      12
      19      21      22      23       7       8       9      10      11      12
      15      18      24      25       8       9      10      11      12      13
      14      15      24      25      26      30       9      10      11      12
      13      14      15      18      25      26      30      10      12      18
      20      21      22      23      24      11      12      18      22      23
      24      25      26      12      13      14      15      16      17      18
      24      25      26      27      28      29      30      15      18      24
      26      14      15      16      17      27      28      29      30      31
      15      16      17      27      28      29      30      16      17      25
      26      27      28      29      30      31      17      30      31      30
      31      26      20      21      22      23       0       0      25       0
       0      28      29      30      29      30      30       0       0
%FLAG HBOND_ACOEF                                                               
%FORMAT(5E16.8)                                                                 

%FLAG HBOND_BCOEF                                                               
%FORMAT(5E16.8)                                                                 

%FLAG HBCUT                                                                     
%FORMAT(5E16.8)                                                                 

%FLAG AMBER_ATOM_TYPE                                                           
%FORMAT(20a4)                                                                   
ca  ca  ca  ca  ca  ca  ca  ca  cp  cp  ca  ca  c   c3  c3  o   oh  f   ha  ha  
ha  ha  ha  ha  ha  ha  hc  hc  hc  hc  ho  
%FLAG TREE_CHAIN_CLASSIFICATION                                                 
%FORMAT(20a4)                                                                   
BLA BLA BLA BLA BLA BLA BLA BLA BLA BLA BLA BLA BLA BLA BLA BLA BLA BLA BLA BLA 
BLA BLA BLA BLA BLA BLA BLA BLA BLA BLA BLA 
%FLAG JOIN_ARRAY                                                                
%FORMAT(10I8)                                                                   
       0       0       0       0       0       0       0       0       0       0
       0       0       0       0       0       0       0       0       0       0
       0       0       0       0       0       0       0       0       0       0
       0
%FLAG IROTAT                                                                    
%FORMAT(10I8)                                                                   
       0       0       0       0       0       0       0       0       0       0
       0       0       0       0       0       0       0       0       0       0
       0       0       0       0       0       0       0       0       0       0
       0
%FLAG RADIUS_SET                                                                
%FORMAT(1a80)                                                                   
modified Bondi radii (mbondi)                                                   
%FLAG RADII                                                                     
%FORMAT(5E16.8)                                                                 
  1.70000000E+00  1.70000000E+00  1.70000000E+00  1.70000000E+00  1.70000000E+00
  1.70000000E+00  1.70000000E+00  1.70000000E+00  1.70000000E+00  1.70000000E+00
  1.70000000E+00  1.70000000E+00  1.70000000E+00  1.70000000E+00  1.70000000E+00
  1.50000000E+00  1.50000000E+00  1.50000000E+00  1.30000000E+00  1.30000000E+00
  1.30000000E+00  1.30000000E+00  1.30000000E+00  1.30000000E+00  1.30000000E+00
  1.30000000E+00  1.30000000E+00  1.30000000E+00  1.30000000E+00  1.30000000E+00
  8.00000000E-01
%FLAG SCREEN                                                                    
%FORMAT(5E16.8)                                                                 
  7.20000000E-01  7.20000000E-01  7.20000000E-01  7.20000000E-01  7.20000000E-01
  7.20000000E-01  7.20000000E-01  7.20000000E-01  7.20000000E-01  7.20000000E-01
  7.20000000E-01  7.20000000E-01  7.20000000E-01  7.20000000E-01  7.20000000E-01
  8.50000000E-01  8.50000000E-01  8.80000000E-01  8.50000000E-01  8.50000000E-01
  8.50000000E-01  8.50000000E-01  8.50000000E-01  8.50000000E-01  8.50000000E-01
  8.50000000E-01  8.50000000E-01  8.50000000E-01  8.50000000E-01  8.50000000E-01
  8.50000000E-01
%FLAG IPOL                                                                      
%FORMAT(1I8)                                                                    
       0
