; mobley_1527293_GMX.top created by acpype (v: 2023.10.27) on Thu May 21 00:04:11 2026

[ defaults ]
; nbfunc        comb-rule       gen-pairs       fudgeLJ fudgeQQ
1               2               yes             0.5     0.8333333333

; Include mobley_1527293_GMX.itp topology
#include "mobley_1527293_GMX.itp"

; Ligand position restraints
#ifdef POSRES_LIG
#include "posre_mobley_1527293.itp"
#endif

[ system ]
mobley_1527293 in water

[ molecules ]
; Compound        nmols
 mobley_1527293   1     
SOL              4628
