; mobley_1527293_GMX_OPLS.itp created by acpype (v: 2023.10.27) on Thu May 21 00:04:11 2026

; For OPLS atomtypes manual fine tuning
; AC_at:OPLS_at:OPLScode: Possible_Alternatives (see ffoplsaa.atp and ffoplsaanb.itp)
; ca:CA:opls_145: ['166', '501', '502']
; cp:x:opls_x: []
; c:C:opls_235: ['271']
; c3:CT:opls_135: ['136', '137', '149', '157', '158', '206', '209', '210', '223B', '224B', '245', '246', '274', '283', '284', '285', '292', '292B', '293B', '296', '307', '308', '505']
; o:O:opls_236: ['272']
; oh:OH:opls_154: ['167']
; f:x:opls_x: []
; ha:HA:opls_146: []
; hc:HC:opls_140: []
; ho:HO:opls_155: ['168']

[ moleculetype ]
;name            nrexcl
 mobley_1527293   3

[ atoms ]
;   nr  type  resi  res  atom  cgnr     charge      mass       ; qtot   bond_type
     1 opls_145     1   MOL    C1    1    -0.122000     12.01100 ; qtot -0.122  CA  
     2 opls_145     1   MOL    C2    2    -0.131500     12.01100 ; qtot -0.253  CA  
     3 opls_145     1   MOL    C3    3    -0.131500     12.01100 ; qtot -0.385  CA  
     4 opls_145     1   MOL    C4    4    -0.110000     12.01100 ; qtot -0.495  CA  
     5 opls_145     1   MOL    C5    5    -0.110000     12.01100 ; qtot -0.605  CA  
     6 opls_145     1   MOL    C6    6    -0.102000     12.01100 ; qtot -0.707  CA  
     7 opls_145     1   MOL    C7    7    -0.132000     12.01100 ; qtot -0.839  CA  
     8 opls_145     1   MOL    C8    8    -0.154000     12.01100 ; qtot -0.993  CA  
     9 opls_x     1   MOL    C9    9    -0.045000      0.00000 ; qtot -1.038  x   
    10 opls_x     1   MOL   C10   10    -0.058000      0.00000 ; qtot -1.096  x   
    11 opls_145     1   MOL   C11   11    -0.067300     12.01100 ; qtot -1.163  CA  
    12 opls_145     1   MOL   C12   12     0.136900     12.01100 ; qtot -1.026  CA  
    13 opls_235     1   MOL   C13   13     0.639101     12.01100 ; qtot -0.387  C   
    14 opls_135     1   MOL   C14   14    -0.092100     12.01100 ; qtot -0.479  CT  
    15 opls_135     1   MOL   C15   15    -0.058400     12.01100 ; qtot -0.538  CT  
    16 opls_236     1   MOL    O1   16    -0.548000     15.99940 ; qtot -1.086  O   
    17 opls_154     1   MOL    O2   17    -0.605100     15.99940 ; qtot -1.691  OH  
    18 opls_x     1   MOL    F1   18    -0.133900      0.00000 ; qtot -1.825  x   
    19 opls_146     1   MOL    H1   19     0.133000      1.00800 ; qtot -1.692  HA  
    20 opls_146     1   MOL    H2   20     0.134000      1.00800 ; qtot -1.558  HA  
    21 opls_146     1   MOL    H3   21     0.134000      1.00800 ; qtot -1.424  HA  
    22 opls_146     1   MOL    H4   22     0.137500      1.00800 ; qtot -1.286  HA  
    23 opls_146     1   MOL    H5   23     0.137500      1.00800 ; qtot -1.149  HA  
    24 opls_146     1   MOL    H6   24     0.144000      1.00800 ; qtot -1.005  HA  
    25 opls_146     1   MOL    H7   25     0.139000      1.00800 ; qtot -0.866  HA  
    26 opls_146     1   MOL    H8   26     0.172000      1.00800 ; qtot -0.694  HA  
    27 opls_140     1   MOL    H9   27     0.053033      1.00800 ; qtot -0.641  HC  
    28 opls_140     1   MOL   H10   28     0.053033      1.00800 ; qtot -0.588  HC  
    29 opls_140     1   MOL   H11   29     0.053033      1.00800 ; qtot -0.535  HC  
    30 opls_140     1   MOL   H12   30     0.089700      1.00800 ; qtot -0.445  HC  
    31 opls_155     1   MOL   H13   31     0.445000      1.00800 ; qtot -0.000  HO  

[ bonds ]
;   ai     aj funct   r             k
     1      2   1 ;    1.3986e-01    2.9644e+05 ;     C1 - C2         CA - CA    
     1      3   1 ;    1.3986e-01    2.9644e+05 ;     C1 - C3         CA - CA    
     1     19   1 ;    1.0860e-01    3.0183e+05 ;     C1 - H1         CA - HA    
     2      4   1 ;    1.3986e-01    2.9644e+05 ;     C2 - C4         CA - CA    
     2     20   1 ;    1.0860e-01    3.0183e+05 ;     C2 - H2         CA - HA    
     3      5   1 ;    1.3986e-01    2.9644e+05 ;     C3 - C5         CA - CA    
     3     21   1 ;    1.0860e-01    3.0183e+05 ;     C3 - H3         CA - HA    
     4      9   1 ;    1.4056e-01    2.8959e+05 ;     C4 - C9         CA - x     
     4     22   1 ;    1.0860e-01    3.0183e+05 ;     C4 - H4         CA - HA    
     5      9   1 ;    1.4056e-01    2.8959e+05 ;     C5 - C9         CA - x     
     5     23   1 ;    1.0860e-01    3.0183e+05 ;     C5 - H5         CA - HA    
     6      7   1 ;    1.3986e-01    2.9644e+05 ;     C6 - C7         CA - CA    
     6     10   1 ;    1.4056e-01    2.8959e+05 ;     C6 - C10        CA - x     
     6     24   1 ;    1.0860e-01    3.0183e+05 ;     C6 - H6         CA - HA    
     7     11   1 ;    1.3986e-01    2.9644e+05 ;     C7 - C11        CA - CA    
     7     25   1 ;    1.0860e-01    3.0183e+05 ;     C7 - H7         CA - HA    
     8     11   1 ;    1.3986e-01    2.9644e+05 ;     C8 - C11        CA - CA    
     8     12   1 ;    1.3986e-01    2.9644e+05 ;     C8 - C12        CA - CA    
     8     26   1 ;    1.0860e-01    3.0183e+05 ;     C8 - H8         CA - HA    
     9     10   1 ;    1.4829e-01    2.2541e+05 ;     C9 - C10         x - x     
    10     12   1 ;    1.4056e-01    2.8959e+05 ;    C10 - C12         x - CA    
    11     15   1 ;    1.5147e-01    2.0410e+05 ;    C11 - C15        CA - CT    
    12     18   1 ;    1.3502e-01    2.8070e+05 ;    C12 - F1         CA - x     
    13     15   1 ;    1.5270e-01    1.9652e+05 ;    C13 - C15         C - CT    
    13     16   1 ;    1.2190e-01    4.9421e+05 ;    C13 - O1          C - O     
    13     17   1 ;    1.3556e-01    3.0064e+05 ;    C13 - O2          C - OH    
    14     15   1 ;    1.5354e-01    1.9154e+05 ;    C14 - C15        CT - CT    
    14     27   1 ;    1.0962e-01    2.8891e+05 ;    C14 - H9         CT - HC    
    14     28   1 ;    1.0962e-01    2.8891e+05 ;    C14 - H10        CT - HC    
    14     29   1 ;    1.0962e-01    2.8891e+05 ;    C14 - H11        CT - HC    
    15     30   1 ;    1.0962e-01    2.8891e+05 ;    C15 - H12        CT - HC    
    17     31   1 ;    9.7250e-02    4.4811e+05 ;     O2 - H13        OH - HO    

[ pairs ]
;   ai     aj    funct
     1      9      1 ;     C1 - C9    
     1     22      1 ;     C1 - H4    
     1     23      1 ;     C1 - H5    
     2      5      1 ;     C2 - C5    
     2     10      1 ;     C2 - C10   
     2     21      1 ;     C2 - H3    
     3      4      1 ;     C3 - C4    
     3     10      1 ;     C3 - C10   
     3     20      1 ;     C3 - H2    
     4      6      1 ;     C4 - C6    
     4     12      1 ;     C4 - C12   
     4     23      1 ;     C4 - H5    
     5      6      1 ;     C5 - C6    
     5     12      1 ;     C5 - C12   
     5     22      1 ;     C5 - H4    
     6      8      1 ;     C6 - C8    
     6     15      1 ;     C6 - C15   
     6     18      1 ;     C6 - F1    
     7      9      1 ;     C7 - C9    
     7     12      1 ;     C7 - C12   
     7     13      1 ;     C7 - C13   
     7     14      1 ;     C7 - C14   
     7     26      1 ;     C7 - H8    
     7     30      1 ;     C7 - H12   
     8      9      1 ;     C8 - C9    
     8     13      1 ;     C8 - C13   
     8     14      1 ;     C8 - C14   
     8     25      1 ;     C8 - H7    
     8     30      1 ;     C8 - H12   
     9     18      1 ;     C9 - F1    
     9     20      1 ;     C9 - H2    
     9     21      1 ;     C9 - H3    
     9     24      1 ;     C9 - H6    
    10     11      1 ;    C10 - C11   
    10     22      1 ;    C10 - H4    
    10     23      1 ;    C10 - H5    
    10     25      1 ;    C10 - H7    
    10     26      1 ;    C10 - H8    
    11     16      1 ;    C11 - O1    
    11     17      1 ;    C11 - O2    
    11     18      1 ;    C11 - F1    
    11     24      1 ;    C11 - H6    
    11     27      1 ;    C11 - H9    
    11     28      1 ;    C11 - H10   
    11     29      1 ;    C11 - H11   
    12     15      1 ;    C12 - C15   
    12     24      1 ;    C12 - H6    
    13     27      1 ;    C13 - H9    
    13     28      1 ;    C13 - H10   
    13     29      1 ;    C13 - H11   
    14     16      1 ;    C14 - O1    
    14     17      1 ;    C14 - O2    
    15     25      1 ;    C15 - H7    
    15     26      1 ;    C15 - H8    
    15     31      1 ;    C15 - H13   
    16     30      1 ;     O1 - H12   
    16     31      1 ;     O1 - H13   
    17     30      1 ;     O2 - H12   
    18     26      1 ;     F1 - H8    
    19      4      1 ;     H1 - C4    
    19      5      1 ;     H1 - C5    
    19     20      1 ;     H1 - H2    
    19     21      1 ;     H1 - H3    
    20     22      1 ;     H2 - H4    
    21     23      1 ;     H3 - H5    
    24     25      1 ;     H6 - H7    
    27     30      1 ;     H9 - H12   
    28     30      1 ;    H10 - H12   
    29     30      1 ;    H11 - H12   

[ angles ]
;   ai     aj     ak    funct   theta         cth
     1      2      4      1 ;    1.2002e+02    5.3279e+02 ;     C1 - C2   - C4       CA -   CA - CA  
     1      2     20      1 ;    1.1988e+02    3.7572e+02 ;     C1 - C2   - H2       CA -   CA - HA  
     1      3      5      1 ;    1.2002e+02    5.3279e+02 ;     C1 - C3   - C5       CA -   CA - CA  
     1      3     21      1 ;    1.1988e+02    3.7572e+02 ;     C1 - C3   - H3       CA -   CA - HA  
     2      1      3      1 ;    1.2002e+02    5.3279e+02 ;     C2 - C1   - C3       CA -   CA - CA  
     2      1     19      1 ;    1.1988e+02    3.7572e+02 ;     C2 - C1   - H1       CA -   CA - HA  
     2      4      9      1 ;    1.2073e+02    5.2995e+02 ;     C2 - C4   - C9       CA -   CA - x   
     2      4     22      1 ;    1.1988e+02    3.7572e+02 ;     C2 - C4   - H4       CA -   CA - HA  
     3      1     19      1 ;    1.1988e+02    3.7572e+02 ;     C3 - C1   - H1       CA -   CA - HA  
     3      5      9      1 ;    1.2073e+02    5.2995e+02 ;     C3 - C5   - C9       CA -   CA - x   
     3      5     23      1 ;    1.1988e+02    3.7572e+02 ;     C3 - C5   - H5       CA -   CA - HA  
     4      2     20      1 ;    1.1988e+02    3.7572e+02 ;     C4 - C2   - H2       CA -   CA - HA  
     4      9      5      1 ;    1.1841e+02    5.3379e+02 ;     C4 - C9   - C5       CA -    x - CA  
     4      9     10      1 ;    1.2110e+02    5.1296e+02 ;     C4 - C9   - C10      CA -    x - x   
     5      3     21      1 ;    1.1988e+02    3.7572e+02 ;     C5 - C3   - H3       CA -   CA - HA  
     5      9     10      1 ;    1.2110e+02    5.1296e+02 ;     C5 - C9   - C10      CA -    x - x   
     6      7     11      1 ;    1.2002e+02    5.3279e+02 ;     C6 - C7   - C11      CA -   CA - CA  
     6      7     25      1 ;    1.1988e+02    3.7572e+02 ;     C6 - C7   - H7       CA -   CA - HA  
     6     10      9      1 ;    1.2110e+02    5.1296e+02 ;     C6 - C10  - C9       CA -    x - x   
     6     10     12      1 ;    1.1841e+02    5.3379e+02 ;     C6 - C10  - C12      CA -    x - CA  
     7      6     10      1 ;    1.2073e+02    5.2995e+02 ;     C7 - C6   - C10      CA -   CA - x   
     7      6     24      1 ;    1.1988e+02    3.7572e+02 ;     C7 - C6   - H6       CA -   CA - HA  
     7     11      8      1 ;    1.2002e+02    5.3279e+02 ;     C7 - C11  - C8       CA -   CA - CA  
     7     11     15      1 ;    1.2083e+02    5.0827e+02 ;     C7 - C11  - C15      CA -   CA - CT  
     8     11     15      1 ;    1.2083e+02    5.0827e+02 ;     C8 - C11  - C15      CA -   CA - CT  
     8     12     10      1 ;    1.2073e+02    5.2995e+02 ;     C8 - C12  - C10      CA -   CA - x   
     8     12     18      1 ;    1.1896e+02    6.7404e+02 ;     C8 - C12  - F1       CA -   CA - x   
     9      4     22      1 ;    1.1982e+02    3.7430e+02 ;     C9 - C4   - H4        x -   CA - HA  
     9      5     23      1 ;    1.1982e+02    3.7430e+02 ;     C9 - C5   - H5        x -   CA - HA  
     9     10     12      1 ;    1.2110e+02    5.1296e+02 ;     C9 - C10  - C12       x -    x - CA  
    10      6     24      1 ;    1.1982e+02    3.7430e+02 ;    C10 - C6   - H6        x -   CA - HA  
    10     12     18      1 ;    1.1943e+02    6.7095e+02 ;    C10 - C12  - F1        x -   CA - x   
    11      7     25      1 ;    1.1988e+02    3.7572e+02 ;    C11 - C7   - H7       CA -   CA - HA  
    11      8     12      1 ;    1.2002e+02    5.3279e+02 ;    C11 - C8   - C12      CA -   CA - CA  
    11      8     26      1 ;    1.1988e+02    3.7572e+02 ;    C11 - C8   - H8       CA -   CA - HA  
    11     15     13      1 ;    1.1116e+02    5.0911e+02 ;    C11 - C15  - C13      CA -   CT - C   
    11     15     14      1 ;    1.1242e+02    5.0484e+02 ;    C11 - C15  - C14      CA -   CT - CT  
    11     15     30      1 ;    1.1063e+02    3.6493e+02 ;    C11 - C15  - H12      CA -   CT - HC  
    12      8     26      1 ;    1.1988e+02    3.7572e+02 ;    C12 - C8   - H8       CA -   CA - HA  
    13     15     14      1 ;    1.1143e+02    5.0509e+02 ;    C13 - C15  - C14       C -   CT - CT  
    13     15     30      1 ;    1.0895e+02    3.6510e+02 ;    C13 - C15  - H12       C -   CT - HC  
    13     17     31      1 ;    1.0654e+02    5.7287e+02 ;    C13 - O2   - H13       C -   OH - HO  
    14     15     30      1 ;    1.0968e+02    3.6208e+02 ;    C14 - C15  - H12      CT -   CT - HC  
    15     13     16      1 ;    1.2290e+02    6.3973e+02 ;    C15 - C13  - O1       CT -    C - O   
    15     13     17      1 ;    1.1274e+02    6.4785e+02 ;    C15 - C13  - O2       CT -    C - OH  
    15     14     27      1 ;    1.0968e+02    3.6208e+02 ;    C15 - C14  - H9       CT -   CT - HC  
    15     14     28      1 ;    1.0968e+02    3.6208e+02 ;    C15 - C14  - H10      CT -   CT - HC  
    15     14     29      1 ;    1.0968e+02    3.6208e+02 ;    C15 - C14  - H11      CT -   CT - HC  
    16     13     17      1 ;    1.2209e+02    8.5379e+02 ;     O1 - C13  - O2        O -    C - OH  
    27     14     28      1 ;    1.0773e+02    2.9957e+02 ;     H9 - C14  - H10      HC -   CT - HC  
    27     14     29      1 ;    1.0773e+02    2.9957e+02 ;     H9 - C14  - H11      HC -   CT - HC  
    28     14     29      1 ;    1.0773e+02    2.9957e+02 ;    H10 - C14  - H11      HC -   CT - HC  

[ dihedrals ] ; propers
; for gromacs 4.5 or higher, using funct 9
;    i      j      k      l   func   phase     kd      pn
     1      2      4      9      9 ;   180.00  15.16700   2 ;     C1-    C2-    C4-    C9
     1      2      4     22      9 ;   180.00  15.16700   2 ;     C1-    C2-    C4-    H4
     1      3      5      9      9 ;   180.00  15.16700   2 ;     C1-    C3-    C5-    C9
     1      3      5     23      9 ;   180.00  15.16700   2 ;     C1-    C3-    C5-    H5
     2      1      3      5      9 ;   180.00  15.16700   2 ;     C2-    C1-    C3-    C5
     2      1      3     21      9 ;   180.00  15.16700   2 ;     C2-    C1-    C3-    H3
     2      4      9      5      9 ;   180.00  15.16700   2 ;     C2-    C4-    C9-    C5
     2      4      9     10      9 ;   180.00  15.16700   2 ;     C2-    C4-    C9-   C10
     3      1      2      4      9 ;   180.00  15.16700   2 ;     C3-    C1-    C2-    C4
     3      1      2     20      9 ;   180.00  15.16700   2 ;     C3-    C1-    C2-    H2
     3      5      9      4      9 ;   180.00  15.16700   2 ;     C3-    C5-    C9-    C4
     3      5      9     10      9 ;   180.00  15.16700   2 ;     C3-    C5-    C9-   C10
     4      9      5     23      9 ;   180.00  15.16700   2 ;     C4-    C9-    C5-    H5
     4      9     10      6      9 ;   180.00   3.20076   2 ;     C4-    C9-   C10-    C6
     4      9     10     12      9 ;   180.00   3.20076   2 ;     C4-    C9-   C10-   C12
     5      9      4     22      9 ;   180.00  15.16700   2 ;     C5-    C9-    C4-    H4
     5      9     10      6      9 ;   180.00   3.20076   2 ;     C5-    C9-   C10-    C6
     5      9     10     12      9 ;   180.00   3.20076   2 ;     C5-    C9-   C10-   C12
     6      7     11      8      9 ;   180.00  15.16700   2 ;     C6-    C7-   C11-    C8
     6      7     11     15      9 ;   180.00  15.16700   2 ;     C6-    C7-   C11-   C15
     6     10     12      8      9 ;   180.00  15.16700   2 ;     C6-   C10-   C12-    C8
     6     10     12     18      9 ;   180.00  15.16700   2 ;     C6-   C10-   C12-    F1
     7      6     10      9      9 ;   180.00  15.16700   2 ;     C7-    C6-   C10-    C9
     7      6     10     12      9 ;   180.00  15.16700   2 ;     C7-    C6-   C10-   C12
     7     11      8     12      9 ;   180.00  15.16700   2 ;     C7-   C11-    C8-   C12
     7     11      8     26      9 ;   180.00  15.16700   2 ;     C7-   C11-    C8-    H8
     7     11     15     13      9 ;     0.00   0.00000   0 ;     C7-   C11-   C15-   C13
     7     11     15     14      9 ;   180.00   1.00416   2 ;     C7-   C11-   C15-   C14
     7     11     15     30      9 ;     0.00   0.00000   0 ;     C7-   C11-   C15-   H12
     8     11      7     25      9 ;   180.00  15.16700   2 ;     C8-   C11-    C7-    H7
     8     11     15     13      9 ;     0.00   0.00000   0 ;     C8-   C11-   C15-   C13
     8     11     15     14      9 ;   180.00   1.00416   2 ;     C8-   C11-   C15-   C14
     8     11     15     30      9 ;     0.00   0.00000   0 ;     C8-   C11-   C15-   H12
     8     12     10      9      9 ;   180.00  15.16700   2 ;     C8-   C12-   C10-    C9
     9      4      2     20      9 ;   180.00  15.16700   2 ;     C9-    C4-    C2-    H2
     9      5      3     21      9 ;   180.00  15.16700   2 ;     C9-    C5-    C3-    H3
     9     10      6     24      9 ;   180.00  15.16700   2 ;     C9-   C10-    C6-    H6
     9     10     12     18      9 ;   180.00  15.16700   2 ;     C9-   C10-   C12-    F1
    10      6      7     11      9 ;   180.00  15.16700   2 ;    C10-    C6-    C7-   C11
    10      6      7     25      9 ;   180.00  15.16700   2 ;    C10-    C6-    C7-    H7
    10      9      4     22      9 ;   180.00  15.16700   2 ;    C10-    C9-    C4-    H4
    10      9      5     23      9 ;   180.00  15.16700   2 ;    C10-    C9-    C5-    H5
    10     12      8     11      9 ;   180.00  15.16700   2 ;    C10-   C12-    C8-   C11
    10     12      8     26      9 ;   180.00  15.16700   2 ;    C10-   C12-    C8-    H8
    11      7      6     24      9 ;   180.00  15.16700   2 ;    C11-    C7-    C6-    H6
    11      8     12     18      9 ;   180.00  15.16700   2 ;    C11-    C8-   C12-    F1
    11     15     13     16      9 ;   180.00   0.00000   2 ;    C11-   C15-   C13-    O1
    11     15     13     17      9 ;   180.00   0.00000   2 ;    C11-   C15-   C13-    O2
    11     15     14     27      9 ;     0.00   0.65084   3 ;    C11-   C15-   C14-    H9
    11     15     14     28      9 ;     0.00   0.65084   3 ;    C11-   C15-   C14-   H10
    11     15     14     29      9 ;     0.00   0.65084   3 ;    C11-   C15-   C14-   H11
    12      8     11     15      9 ;   180.00  15.16700   2 ;    C12-    C8-   C11-   C15
    12     10      6     24      9 ;   180.00  15.16700   2 ;    C12-   C10-    C6-    H6
    13     15     14     27      9 ;     0.00   0.65084   3 ;    C13-   C15-   C14-    H9
    13     15     14     28      9 ;     0.00   0.65084   3 ;    C13-   C15-   C14-   H10
    13     15     14     29      9 ;     0.00   0.65084   3 ;    C13-   C15-   C14-   H11
    14     15     13     16      9 ;     0.00   2.84512   1 ;    C14-   C15-   C13-    O1
    14     15     13     16      9 ;   180.00   0.83680   2 ;    C14-   C15-   C13-    O1
    14     15     13     16      9 ;   180.00   1.84096   3 ;    C14-   C15-   C13-    O1
    14     15     13     17      9 ;   180.00   0.00000   2 ;    C14-   C15-   C13-    O2
    15     11      7     25      9 ;   180.00  15.16700   2 ;    C15-   C11-    C7-    H7
    15     11      8     26      9 ;   180.00  15.16700   2 ;    C15-   C11-    C8-    H8
    15     13     17     31      9 ;   180.00   7.53120   2 ;    C15-   C13-    O2-   H13
    16     13     15     30      9 ;     0.00  16.86152   1 ;     O1-   C13-   C15-   H12
    16     13     15     30      9 ;   180.00  15.31344   2 ;     O1-   C13-   C15-   H12
    16     13     17     31      9 ;     0.00   7.94960   1 ;     O1-   C13-    O2-   H13
    16     13     17     31      9 ;   180.00   9.62320   2 ;     O1-   C13-    O2-   H13
    17     13     15     30      9 ;   180.00   0.00000   2 ;     O2-   C13-   C15-   H12
    18     12      8     26      9 ;   180.00  15.16700   2 ;     F1-   C12-    C8-    H8
    19      1      2      4      9 ;   180.00  15.16700   2 ;     H1-    C1-    C2-    C4
    19      1      2     20      9 ;   180.00  15.16700   2 ;     H1-    C1-    C2-    H2
    19      1      3      5      9 ;   180.00  15.16700   2 ;     H1-    C1-    C3-    C5
    19      1      3     21      9 ;   180.00  15.16700   2 ;     H1-    C1-    C3-    H3
    20      2      4     22      9 ;   180.00  15.16700   2 ;     H2-    C2-    C4-    H4
    21      3      5     23      9 ;   180.00  15.16700   2 ;     H3-    C3-    C5-    H5
    24      6      7     25      9 ;   180.00  15.16700   2 ;     H6-    C6-    C7-    H7
    27     14     15     30      9 ;     0.00   0.50208   3 ;     H9-   C14-   C15-   H12
    28     14     15     30      9 ;     0.00   0.50208   3 ;    H10-   C14-   C15-   H12
    29     14     15     30      9 ;     0.00   0.50208   3 ;    H11-   C14-   C15-   H12

[ dihedrals ] ; impropers
; treated as propers in GROMACS to use correct AMBER analytical function
;    i      j      k      l   func   phase     kd      pn
     1      4      2     20      4 ;   180.00   4.60240   2 ;     C1-    C4-    C2-    H2
     1      5      3     21      4 ;   180.00   4.60240   2 ;     C1-    C5-    C3-    H3
     2      9      4     22      4 ;   180.00   4.60240   2 ;     C2-    C9-    C4-    H4
     3      9      5     23      4 ;   180.00   4.60240   2 ;     C3-    C9-    C5-    H5
     4      5      9     10      4 ;   180.00   4.60240   2 ;     C4-    C5-    C9-   C10
     6     11      7     25      4 ;   180.00   4.60240   2 ;     C6-   C11-    C7-    H7
     6     12     10      9      4 ;   180.00   4.60240   2 ;     C6-   C12-   C10-    C9
     7      8     11     15      4 ;   180.00   4.60240   2 ;     C7-    C8-   C11-   C15
     7     10      6     24      4 ;   180.00   4.60240   2 ;     C7-   C10-    C6-    H6
     8     10     12     18      4 ;   180.00   4.60240   2 ;     C8-   C10-   C12-    F1
    11     12      8     26      4 ;   180.00   4.60240   2 ;    C11-   C12-    C8-    H8
    15     16     13     17      4 ;   180.00   4.60240   2 ;    C15-    O1-   C13-    O2
    19      1      3      2      4 ;   180.00   4.60240   2 ;     H1-    C1-    C3-    C2
