%VERSION  VERSION_STAMP = V0001.000  DATE = 05/20/26  23:51:19                  
%FLAG TITLE                                                                     
%FORMAT(20a4)                                                                   
123_trimethylbenzene                                                            
%FLAG POINTERS                                                                  
%FORMAT(10I8)                                                                   
      21       4      12       9      24      12      31      17       0       0
     101       1       9      12      17       4       5       3       4       0
       0       0       0       0       0       0       0       0      21       0
       0
%FLAG ATOM_NAME                                                                 
%FORMAT(20a4)                                                                   
C1  C2  C3  C4  C5  C6  C7  C8  C9  H1  H2  H3  H4  H5  H6  H7  H8  H9  H10 H11 
H12 
%FLAG CHARGE                                                                    
%FORMAT(5E16.8)                                                                 
 -2.35067670E+00 -2.39623245E+00 -2.39623245E+00 -1.35391689E+00 -1.35391689E+00
 -1.37213919E+00 -9.62137440E-01 -9.62137440E-01 -9.98582040E-01  2.35067670E+00
  2.35067670E+00  2.35067670E+00  7.84160236E-01  7.84160236E-01  7.84160236E-01
  7.84160236E-01  7.84160236E-01  7.84160236E-01  7.96314510E-01  7.96314510E-01
  7.96314510E-01
%FLAG ATOMIC_NUMBER                                                             
%FORMAT(10I8)                                                                   
       6       6       6       6       6       6       6       6       6       1
       1       1       1       1       1       1       1       1       1       1
       1
%FLAG MASS                                                                      
%FORMAT(5E16.8)                                                                 
  1.20100000E+01  1.20100000E+01  1.20100000E+01  1.20100000E+01  1.20100000E+01
  1.20100000E+01  1.20100000E+01  1.20100000E+01  1.20100000E+01  1.00800000E+00
  1.00800000E+00  1.00800000E+00  1.00800000E+00  1.00800000E+00  1.00800000E+00
  1.00800000E+00  1.00800000E+00  1.00800000E+00  1.00800000E+00  1.00800000E+00
  1.00800000E+00
%FLAG ATOM_TYPE_INDEX                                                           
%FORMAT(10I8)                                                                   
       1       1       1       1       1       1       2       2       2       3
       3       3       4       4       4       4       4       4       4       4
       4
%FLAG NUMBER_EXCLUDED_ATOMS                                                     
%FORMAT(10I8)                                                                   
      10      12      11      13      12      14       5       5       3       2
       1       1       2       1       1       2       1       1       2       1
       1
%FLAG NONBONDED_PARM_INDEX                                                      
%FORMAT(10I8)                                                                   
       1       2       4       7       2       3       5       8       4       5
       6       9       7       8       9      10
%FLAG RESIDUE_LABEL                                                             
%FORMAT(20a4)                                                                   
MOL 
%FLAG RESIDUE_POINTER                                                           
%FORMAT(10I8)                                                                   
       1
%FLAG BOND_FORCE_CONSTANT                                                       
%FORMAT(5E16.8)                                                                 
  3.54250000E+02  3.60690000E+02  2.43910000E+02  3.45250000E+02
%FLAG BOND_EQUIL_VALUE                                                          
%FORMAT(5E16.8)                                                                 
  1.39860000E+00  1.08600000E+00  1.51470000E+00  1.09620000E+00
%FLAG ANGLE_FORCE_CONSTANT                                                      
%FORMAT(5E16.8)                                                                 
  6.36700000E+01  4.49000000E+01  6.07400000E+01  4.36100000E+01  3.58000000E+01
%FLAG ANGLE_EQUIL_VALUE                                                         
%FORMAT(5E16.8)                                                                 
  2.09474507E+00  2.09230160E+00  2.10888224E+00  1.93085858E+00  1.88024401E+00
%FLAG DIHEDRAL_FORCE_CONSTANT                                                   
%FORMAT(5E16.8)                                                                 
  3.62500000E+00  0.00000000E+00  1.10000000E+00
%FLAG DIHEDRAL_PERIODICITY                                                      
%FORMAT(5E16.8)                                                                 
  2.00000000E+00  1.00000000E+00  2.00000000E+00
%FLAG DIHEDRAL_PHASE                                                            
%FORMAT(5E16.8)                                                                 
  3.14159400E+00  0.00000000E+00  3.14159400E+00
%FLAG SCEE_SCALE_FACTOR                                                         
%FORMAT(5E16.8)                                                                 
  1.20000000E+00  1.20000000E+00  0.00000000E+00
%FLAG SCNB_SCALE_FACTOR                                                         
%FORMAT(5E16.8)                                                                 
  2.00000000E+00  2.00000000E+00  0.00000000E+00
%FLAG SOLTY                                                                     
%FORMAT(5E16.8)                                                                 
  0.00000000E+00  0.00000000E+00  0.00000000E+00  0.00000000E+00
%FLAG LENNARD_JONES_ACOEF                                                       
%FORMAT(5E16.8)                                                                 
  6.96551276E+05  8.43969952E+05  1.02073671E+06  7.52549148E+04  9.27554496E+04
  6.90855956E+03  8.12662403E+04  1.00235148E+05  7.41026906E+03  7.94617769E+03
%FLAG LENNARD_JONES_BCOEF                                                       
%FORMAT(5E16.8)                                                                 
  5.24668528E+02  5.90251928E+02  6.63431737E+02  1.09570372E+02  1.24325688E+02
  2.10929191E+01  1.21392023E+02  1.37787728E+02  2.32899892E+01  2.57122925E+01
%FLAG BONDS_INC_HYDROGEN                                                        
%FORMAT(10I8)                                                                   
       0      27       2       3      30       2       6      33       2      18
      36       4      18      39       4      18      42       4      21      45
       4      21      48       4      21      51       4      24      54       4
      24      57       4      24      60       4
%FLAG BONDS_WITHOUT_HYDROGEN                                                    
%FORMAT(10I8)                                                                   
       0       3       1       0       6       1       3       9       1       6
      12       1       9      15       1       9      18       3      12      15
       1      12      21       3      15      24       3
%FLAG ANGLES_INC_HYDROGEN                                                       
%FORMAT(10I8)                                                                   
       0       3      30       2       0       6      33       2       3       0
      27       2       6       0      27       2       9       3      30       2
       9      18      36       4       9      18      39       4       9      18
      42       4      12       6      33       2      12      21      45       4
      12      21      48       4      12      21      51       4      15      24
      54       4      15      24      57       4      15      24      60       4
      36      18      39       5      36      18      42       5      39      18
      42       5      45      21      48       5      45      21      51       5
      48      21      51       5      54      24      57       5      54      24
      60       5      57      24      60       5
%FLAG ANGLES_WITHOUT_HYDROGEN                                                   
%FORMAT(10I8)                                                                   
       0       3       9       1       0       6      12       1       3       0
       6       1       3       9      15       1       3       9      18       3
       6      12      15       1       6      12      21       3       9      15
      12       1       9      15      24       3      12      15      24       3
      15       9      18       3      15      12      21       3
%FLAG DIHEDRALS_INC_HYDROGEN                                                    
%FORMAT(10I8)                                                                   
       3       0       6      33       1       3       9      18      36       2
       3       9      18      39       2       3       9      18      42       2
       6       0       3      30       1       6      12      21      45       2
       6      12      21      48       2       6      12      21      51       2
      27       0       3       9       1       9      15      24      54       2
       9      15      24      57       2       9      15      24      60       2
      27       0       6      12       1      12      15      24      54       2
      12      15      24      57       2      12      15      24      60       2
      15       9       3      30       1      15       9      18      36       2
      15       9      18      39       2      15       9      18      42       2
      15      12       6      33       1      15      12      21      45       2
      15      12      21      48       2      15      12      21      51       2
      18       9       3      30       1      21      12       6      33       1
      27       0       3      30       1      27       0       6      33       1
      27       0      -6      -3       3       0       9      -3     -30       3
       0      12      -6     -33       3
%FLAG DIHEDRALS_WITHOUT_HYDROGEN                                                
%FORMAT(10I8)                                                                   
       0       3       9      15       1       0       3       9      18       1
       0       6     -12      15       1       0       6      12      21       1
       3       0       6      12       1       3       9     -15      12       1
       3       9      15      24       1       6       0       3       9       1
       6      12     -15       9       1       6      12      15      24       1
       9      15      12      21       1      12      15       9      18       1
      18       9      15      24       1      21      12      15      24       1
       3      15      -9     -18       3      21       6     -12     -15       3
      24       9     -15     -12       3
%FLAG EXCLUDED_ATOMS_LIST                                                       
%FORMAT(10I8)                                                                   
       2       3       4       5       6       7       8      10      11      12
       3       4       5       6       7       9      10      11      12      13
      14      15       4       5       6       8       9      10      11      12
      16      17      18       5       6       7       8       9      10      11
      13      14      15      19      20      21       6       7       8       9
      10      12      16      17      18      19      20      21       7       8
       9      11      12      13      14      15      16      17      18      19
      20      21       9      11      13      14      15       9      12      16
      17      18      19      20      21      11      12       0       0      14
      15      15       0      17      18      18       0      20      21      21
       0
%FLAG HBOND_ACOEF                                                               
%FORMAT(5E16.8)                                                                 

%FLAG HBOND_BCOEF                                                               
%FORMAT(5E16.8)                                                                 

%FLAG HBCUT                                                                     
%FORMAT(5E16.8)                                                                 

%FLAG AMBER_ATOM_TYPE                                                           
%FORMAT(20a4)                                                                   
ca  ca  ca  ca  ca  ca  c3  c3  c3  ha  ha  ha  hc  hc  hc  hc  hc  hc  hc  hc  
hc  
%FLAG TREE_CHAIN_CLASSIFICATION                                                 
%FORMAT(20a4)                                                                   
BLA BLA BLA BLA BLA BLA BLA BLA BLA BLA BLA BLA BLA BLA BLA BLA BLA BLA BLA BLA 
BLA 
%FLAG JOIN_ARRAY                                                                
%FORMAT(10I8)                                                                   
       0       0       0       0       0       0       0       0       0       0
       0       0       0       0       0       0       0       0       0       0
       0
%FLAG IROTAT                                                                    
%FORMAT(10I8)                                                                   
       0       0       0       0       0       0       0       0       0       0
       0       0       0       0       0       0       0       0       0       0
       0
%FLAG RADIUS_SET                                                                
%FORMAT(1a80)                                                                   
modified Bondi radii (mbondi)                                                   
%FLAG RADII                                                                     
%FORMAT(5E16.8)                                                                 
  1.70000000E+00  1.70000000E+00  1.70000000E+00  1.70000000E+00  1.70000000E+00
  1.70000000E+00  1.70000000E+00  1.70000000E+00  1.70000000E+00  1.30000000E+00
  1.30000000E+00  1.30000000E+00  1.30000000E+00  1.30000000E+00  1.30000000E+00
  1.30000000E+00  1.30000000E+00  1.30000000E+00  1.30000000E+00  1.30000000E+00
  1.30000000E+00
%FLAG SCREEN                                                                    
%FORMAT(5E16.8)                                                                 
  7.20000000E-01  7.20000000E-01  7.20000000E-01  7.20000000E-01  7.20000000E-01
  7.20000000E-01  7.20000000E-01  7.20000000E-01  7.20000000E-01  8.50000000E-01
  8.50000000E-01  8.50000000E-01  8.50000000E-01  8.50000000E-01  8.50000000E-01
  8.50000000E-01  8.50000000E-01  8.50000000E-01  8.50000000E-01  8.50000000E-01
  8.50000000E-01
%FLAG IPOL                                                                      
%FORMAT(1I8)                                                                    
       0
