; mobley_3452749_GMX_OPLS.itp created by acpype (v: 2023.10.27) on Wed May 20 23:51:16 2026

; For OPLS atomtypes manual fine tuning
; AC_at:OPLS_at:OPLScode: Possible_Alternatives (see ffoplsaa.atp and ffoplsaanb.itp)
; ca:CA:opls_145: ['166', '501', '502']
; c3:CT:opls_135: ['136', '137', '149', '157', '158', '206', '209', '210', '223B', '224B', '245', '246', '274', '283', '284', '285', '292', '292B', '293B', '296', '307', '308', '505']
; ha:HA:opls_146: []
; hc:HC:opls_140: []

[ moleculetype ]
;name            nrexcl
 mobley_3452749   3

[ atoms ]
;   nr  type  resi  res  atom  cgnr     charge      mass       ; qtot   bond_type
     1 opls_145     1   MOL    C1    1    -0.129000     12.01100 ; qtot -0.129  CA  
     2 opls_145     1   MOL    C2    2    -0.131499     12.01100 ; qtot -0.260  CA  
     3 opls_145     1   MOL    C3    3    -0.131499     12.01100 ; qtot -0.392  CA  
     4 opls_145     1   MOL    C4    4    -0.074300     12.01100 ; qtot -0.466  CA  
     5 opls_145     1   MOL    C5    5    -0.074300     12.01100 ; qtot -0.541  CA  
     6 opls_145     1   MOL    C6    6    -0.075300     12.01100 ; qtot -0.616  CA  
     7 opls_135     1   MOL    C7    7    -0.052800     12.01100 ; qtot -0.669  CT  
     8 opls_135     1   MOL    C8    8    -0.052800     12.01100 ; qtot -0.721  CT  
     9 opls_135     1   MOL    C9    9    -0.054800     12.01100 ; qtot -0.776  CT  
    10 opls_146     1   MOL    H1   10     0.129000      1.00800 ; qtot -0.647  HA  
    11 opls_146     1   MOL    H2   11     0.129000      1.00800 ; qtot -0.518  HA  
    12 opls_146     1   MOL    H3   12     0.129000      1.00800 ; qtot -0.389  HA  
    13 opls_140     1   MOL    H4   13     0.043033      1.00800 ; qtot -0.346  HC  
    14 opls_140     1   MOL    H5   14     0.043033      1.00800 ; qtot -0.303  HC  
    15 opls_140     1   MOL    H6   15     0.043033      1.00800 ; qtot -0.260  HC  
    16 opls_140     1   MOL    H7   16     0.043033      1.00800 ; qtot -0.217  HC  
    17 opls_140     1   MOL    H8   17     0.043033      1.00800 ; qtot -0.174  HC  
    18 opls_140     1   MOL    H9   18     0.043033      1.00800 ; qtot -0.131  HC  
    19 opls_140     1   MOL   H10   19     0.043700      1.00800 ; qtot -0.087  HC  
    20 opls_140     1   MOL   H11   20     0.043700      1.00800 ; qtot -0.044  HC  
    21 opls_140     1   MOL   H12   21     0.043700      1.00800 ; qtot -0.000  HC  

[ bonds ]
;   ai     aj funct   r             k
     1      2   1 ;    1.3986e-01    2.9644e+05 ;     C1 - C2         CA - CA    
     1      3   1 ;    1.3986e-01    2.9644e+05 ;     C1 - C3         CA - CA    
     1     10   1 ;    1.0860e-01    3.0183e+05 ;     C1 - H1         CA - HA    
     2      4   1 ;    1.3986e-01    2.9644e+05 ;     C2 - C4         CA - CA    
     2     11   1 ;    1.0860e-01    3.0183e+05 ;     C2 - H2         CA - HA    
     3      5   1 ;    1.3986e-01    2.9644e+05 ;     C3 - C5         CA - CA    
     3     12   1 ;    1.0860e-01    3.0183e+05 ;     C3 - H3         CA - HA    
     4      6   1 ;    1.3986e-01    2.9644e+05 ;     C4 - C6         CA - CA    
     4      7   1 ;    1.5147e-01    2.0410e+05 ;     C4 - C7         CA - CT    
     5      6   1 ;    1.3986e-01    2.9644e+05 ;     C5 - C6         CA - CA    
     5      8   1 ;    1.5147e-01    2.0410e+05 ;     C5 - C8         CA - CT    
     6      9   1 ;    1.5147e-01    2.0410e+05 ;     C6 - C9         CA - CT    
     7     13   1 ;    1.0962e-01    2.8891e+05 ;     C7 - H4         CT - HC    
     7     14   1 ;    1.0962e-01    2.8891e+05 ;     C7 - H5         CT - HC    
     7     15   1 ;    1.0962e-01    2.8891e+05 ;     C7 - H6         CT - HC    
     8     16   1 ;    1.0962e-01    2.8891e+05 ;     C8 - H7         CT - HC    
     8     17   1 ;    1.0962e-01    2.8891e+05 ;     C8 - H8         CT - HC    
     8     18   1 ;    1.0962e-01    2.8891e+05 ;     C8 - H9         CT - HC    
     9     19   1 ;    1.0962e-01    2.8891e+05 ;     C9 - H10        CT - HC    
     9     20   1 ;    1.0962e-01    2.8891e+05 ;     C9 - H11        CT - HC    
     9     21   1 ;    1.0962e-01    2.8891e+05 ;     C9 - H12        CT - HC    

[ pairs ]
;   ai     aj    funct
     1      6      1 ;     C1 - C6    
     1      7      1 ;     C1 - C7    
     1      8      1 ;     C1 - C8    
     2      5      1 ;     C2 - C5    
     2      9      1 ;     C2 - C9    
     2     12      1 ;     C2 - H3    
     2     13      1 ;     C2 - H4    
     2     14      1 ;     C2 - H5    
     2     15      1 ;     C2 - H6    
     3      4      1 ;     C3 - C4    
     3      9      1 ;     C3 - C9    
     3     11      1 ;     C3 - H2    
     3     16      1 ;     C3 - H7    
     3     17      1 ;     C3 - H8    
     3     18      1 ;     C3 - H9    
     4      8      1 ;     C4 - C8    
     4     19      1 ;     C4 - H10   
     4     20      1 ;     C4 - H11   
     4     21      1 ;     C4 - H12   
     5      7      1 ;     C5 - C7    
     5     19      1 ;     C5 - H10   
     5     20      1 ;     C5 - H11   
     5     21      1 ;     C5 - H12   
     6     11      1 ;     C6 - H2    
     6     12      1 ;     C6 - H3    
     6     13      1 ;     C6 - H4    
     6     14      1 ;     C6 - H5    
     6     15      1 ;     C6 - H6    
     6     16      1 ;     C6 - H7    
     6     17      1 ;     C6 - H8    
     6     18      1 ;     C6 - H9    
     7      9      1 ;     C7 - C9    
     7     11      1 ;     C7 - H2    
     8      9      1 ;     C8 - C9    
     8     12      1 ;     C8 - H3    
    10      4      1 ;     H1 - C4    
    10      5      1 ;     H1 - C5    
    10     11      1 ;     H1 - H2    
    10     12      1 ;     H1 - H3    

[ angles ]
;   ai     aj     ak    funct   theta         cth
     1      2      4      1 ;    1.2002e+02    5.3279e+02 ;     C1 - C2   - C4       CA -   CA - CA  
     1      2     11      1 ;    1.1988e+02    3.7572e+02 ;     C1 - C2   - H2       CA -   CA - HA  
     1      3      5      1 ;    1.2002e+02    5.3279e+02 ;     C1 - C3   - C5       CA -   CA - CA  
     1      3     12      1 ;    1.1988e+02    3.7572e+02 ;     C1 - C3   - H3       CA -   CA - HA  
     2      1      3      1 ;    1.2002e+02    5.3279e+02 ;     C2 - C1   - C3       CA -   CA - CA  
     2      1     10      1 ;    1.1988e+02    3.7572e+02 ;     C2 - C1   - H1       CA -   CA - HA  
     2      4      6      1 ;    1.2002e+02    5.3279e+02 ;     C2 - C4   - C6       CA -   CA - CA  
     2      4      7      1 ;    1.2083e+02    5.0827e+02 ;     C2 - C4   - C7       CA -   CA - CT  
     3      1     10      1 ;    1.1988e+02    3.7572e+02 ;     C3 - C1   - H1       CA -   CA - HA  
     3      5      6      1 ;    1.2002e+02    5.3279e+02 ;     C3 - C5   - C6       CA -   CA - CA  
     3      5      8      1 ;    1.2083e+02    5.0827e+02 ;     C3 - C5   - C8       CA -   CA - CT  
     4      2     11      1 ;    1.1988e+02    3.7572e+02 ;     C4 - C2   - H2       CA -   CA - HA  
     4      6      5      1 ;    1.2002e+02    5.3279e+02 ;     C4 - C6   - C5       CA -   CA - CA  
     4      6      9      1 ;    1.2083e+02    5.0827e+02 ;     C4 - C6   - C9       CA -   CA - CT  
     4      7     13      1 ;    1.1063e+02    3.6493e+02 ;     C4 - C7   - H4       CA -   CT - HC  
     4      7     14      1 ;    1.1063e+02    3.6493e+02 ;     C4 - C7   - H5       CA -   CT - HC  
     4      7     15      1 ;    1.1063e+02    3.6493e+02 ;     C4 - C7   - H6       CA -   CT - HC  
     5      3     12      1 ;    1.1988e+02    3.7572e+02 ;     C5 - C3   - H3       CA -   CA - HA  
     5      6      9      1 ;    1.2083e+02    5.0827e+02 ;     C5 - C6   - C9       CA -   CA - CT  
     5      8     16      1 ;    1.1063e+02    3.6493e+02 ;     C5 - C8   - H7       CA -   CT - HC  
     5      8     17      1 ;    1.1063e+02    3.6493e+02 ;     C5 - C8   - H8       CA -   CT - HC  
     5      8     18      1 ;    1.1063e+02    3.6493e+02 ;     C5 - C8   - H9       CA -   CT - HC  
     6      4      7      1 ;    1.2083e+02    5.0827e+02 ;     C6 - C4   - C7       CA -   CA - CT  
     6      5      8      1 ;    1.2083e+02    5.0827e+02 ;     C6 - C5   - C8       CA -   CA - CT  
     6      9     19      1 ;    1.1063e+02    3.6493e+02 ;     C6 - C9   - H10      CA -   CT - HC  
     6      9     20      1 ;    1.1063e+02    3.6493e+02 ;     C6 - C9   - H11      CA -   CT - HC  
     6      9     21      1 ;    1.1063e+02    3.6493e+02 ;     C6 - C9   - H12      CA -   CT - HC  
    13      7     14      1 ;    1.0773e+02    2.9957e+02 ;     H4 - C7   - H5       HC -   CT - HC  
    13      7     15      1 ;    1.0773e+02    2.9957e+02 ;     H4 - C7   - H6       HC -   CT - HC  
    14      7     15      1 ;    1.0773e+02    2.9957e+02 ;     H5 - C7   - H6       HC -   CT - HC  
    16      8     17      1 ;    1.0773e+02    2.9957e+02 ;     H7 - C8   - H8       HC -   CT - HC  
    16      8     18      1 ;    1.0773e+02    2.9957e+02 ;     H7 - C8   - H9       HC -   CT - HC  
    17      8     18      1 ;    1.0773e+02    2.9957e+02 ;     H8 - C8   - H9       HC -   CT - HC  
    19      9     20      1 ;    1.0773e+02    2.9957e+02 ;    H10 - C9   - H11      HC -   CT - HC  
    19      9     21      1 ;    1.0773e+02    2.9957e+02 ;    H10 - C9   - H12      HC -   CT - HC  
    20      9     21      1 ;    1.0773e+02    2.9957e+02 ;    H11 - C9   - H12      HC -   CT - HC  

[ dihedrals ] ; propers
; for gromacs 4.5 or higher, using funct 9
;    i      j      k      l   func   phase     kd      pn
     1      2      4      6      9 ;   180.00  15.16700   2 ;     C1-    C2-    C4-    C6
     1      2      4      7      9 ;   180.00  15.16700   2 ;     C1-    C2-    C4-    C7
     1      3      5      6      9 ;   180.00  15.16700   2 ;     C1-    C3-    C5-    C6
     1      3      5      8      9 ;   180.00  15.16700   2 ;     C1-    C3-    C5-    C8
     2      1      3      5      9 ;   180.00  15.16700   2 ;     C2-    C1-    C3-    C5
     2      1      3     12      9 ;   180.00  15.16700   2 ;     C2-    C1-    C3-    H3
     2      4      6      5      9 ;   180.00  15.16700   2 ;     C2-    C4-    C6-    C5
     2      4      6      9      9 ;   180.00  15.16700   2 ;     C2-    C4-    C6-    C9
     2      4      7     13      9 ;     0.00   0.00000   0 ;     C2-    C4-    C7-    H4
     2      4      7     14      9 ;     0.00   0.00000   0 ;     C2-    C4-    C7-    H5
     2      4      7     15      9 ;     0.00   0.00000   0 ;     C2-    C4-    C7-    H6
     3      1      2      4      9 ;   180.00  15.16700   2 ;     C3-    C1-    C2-    C4
     3      1      2     11      9 ;   180.00  15.16700   2 ;     C3-    C1-    C2-    H2
     3      5      6      4      9 ;   180.00  15.16700   2 ;     C3-    C5-    C6-    C4
     3      5      6      9      9 ;   180.00  15.16700   2 ;     C3-    C5-    C6-    C9
     3      5      8     16      9 ;     0.00   0.00000   0 ;     C3-    C5-    C8-    H7
     3      5      8     17      9 ;     0.00   0.00000   0 ;     C3-    C5-    C8-    H8
     3      5      8     18      9 ;     0.00   0.00000   0 ;     C3-    C5-    C8-    H9
     4      6      5      8      9 ;   180.00  15.16700   2 ;     C4-    C6-    C5-    C8
     4      6      9     19      9 ;     0.00   0.00000   0 ;     C4-    C6-    C9-   H10
     4      6      9     20      9 ;     0.00   0.00000   0 ;     C4-    C6-    C9-   H11
     4      6      9     21      9 ;     0.00   0.00000   0 ;     C4-    C6-    C9-   H12
     5      6      4      7      9 ;   180.00  15.16700   2 ;     C5-    C6-    C4-    C7
     5      6      9     19      9 ;     0.00   0.00000   0 ;     C5-    C6-    C9-   H10
     5      6      9     20      9 ;     0.00   0.00000   0 ;     C5-    C6-    C9-   H11
     5      6      9     21      9 ;     0.00   0.00000   0 ;     C5-    C6-    C9-   H12
     6      4      2     11      9 ;   180.00  15.16700   2 ;     C6-    C4-    C2-    H2
     6      4      7     13      9 ;     0.00   0.00000   0 ;     C6-    C4-    C7-    H4
     6      4      7     14      9 ;     0.00   0.00000   0 ;     C6-    C4-    C7-    H5
     6      4      7     15      9 ;     0.00   0.00000   0 ;     C6-    C4-    C7-    H6
     6      5      3     12      9 ;   180.00  15.16700   2 ;     C6-    C5-    C3-    H3
     6      5      8     16      9 ;     0.00   0.00000   0 ;     C6-    C5-    C8-    H7
     6      5      8     17      9 ;     0.00   0.00000   0 ;     C6-    C5-    C8-    H8
     6      5      8     18      9 ;     0.00   0.00000   0 ;     C6-    C5-    C8-    H9
     7      4      2     11      9 ;   180.00  15.16700   2 ;     C7-    C4-    C2-    H2
     7      4      6      9      9 ;   180.00  15.16700   2 ;     C7-    C4-    C6-    C9
     8      5      3     12      9 ;   180.00  15.16700   2 ;     C8-    C5-    C3-    H3
     8      5      6      9      9 ;   180.00  15.16700   2 ;     C8-    C5-    C6-    C9
    10      1      2      4      9 ;   180.00  15.16700   2 ;     H1-    C1-    C2-    C4
    10      1      2     11      9 ;   180.00  15.16700   2 ;     H1-    C1-    C2-    H2
    10      1      3      5      9 ;   180.00  15.16700   2 ;     H1-    C1-    C3-    C5
    10      1      3     12      9 ;   180.00  15.16700   2 ;     H1-    C1-    C3-    H3

[ dihedrals ] ; impropers
; treated as propers in GROMACS to use correct AMBER analytical function
;    i      j      k      l   func   phase     kd      pn
     1      4      2     11      4 ;   180.00   4.60240   2 ;     C1-    C4-    C2-    H2
     1      5      3     12      4 ;   180.00   4.60240   2 ;     C1-    C5-    C3-    H3
     2      6      4      7      4 ;   180.00   4.60240   2 ;     C2-    C6-    C4-    C7
     8      3      5      6      4 ;   180.00   4.60240   2 ;     C8-    C3-    C5-    C6
     9      4      6      5      4 ;   180.00   4.60240   2 ;     C9-    C4-    C6-    C5
    10      1      3      2      4 ;   180.00   4.60240   2 ;     H1-    C1-    C3-    C2
