123_trimethylbenzene
    21
   1.8850000  -1.0380000  -0.1090000   0.8180000  -0.4410000   0.5630000
   2.9350000  -1.6040000   0.6140000   0.8010000  -0.4100000   1.9570000
   2.9180000  -1.5730000   2.0080000   1.8510000  -0.9770000   2.6800000
  -0.3530000   0.2340000   2.6520000   4.0550000  -2.1870000   2.7590000
   1.8330000  -0.9440000   4.1750000   1.8970000  -1.0620000  -1.1950000
   0.0040000  -0.0030000  -0.0100000   3.7610000  -2.0670000   0.0810000
  -0.3030000   0.0420000   3.7300000  -0.3570000   1.3190000   2.4910000
  -1.3090000  -0.1480000   2.2720000   4.5590000  -1.4300000   3.3700000
   3.7060000  -2.9930000   3.4160000   4.7890000  -2.6290000   2.0730000
   2.7350000  -0.4520000   4.5530000   0.9550000  -0.4030000   4.5470000
   1.7840000  -1.9580000   4.5910000
