mobley_3452749_GMX.gro created by acpype (v: 2023.10.27) on Wed May 20 23:51:16 2026
 21
    1  MOL   C1    1   0.189  -0.104  -0.011
    1  MOL   C2    2   0.082  -0.044   0.056
    1  MOL   C3    3   0.294  -0.160   0.061
    1  MOL   C4    4   0.080  -0.041   0.196
    1  MOL   C5    5   0.292  -0.157   0.201
    1  MOL   C6    6   0.185  -0.098   0.268
    1  MOL   C7    7  -0.035   0.023   0.265
    1  MOL   C8    8   0.405  -0.219   0.276
    1  MOL   C9    9   0.183  -0.094   0.417
    1  MOL   H1   10   0.190  -0.106  -0.120
    1  MOL   H2   11   0.000  -0.000  -0.001
    1  MOL   H3   12   0.376  -0.207   0.008
    1  MOL   H4   13  -0.030   0.004   0.373
    1  MOL   H5   14  -0.036   0.132   0.249
    1  MOL   H6   15  -0.131  -0.015   0.227
    1  MOL   H7   16   0.456  -0.143   0.337
    1  MOL   H8   17   0.371  -0.299   0.342
    1  MOL   H9   18   0.479  -0.263   0.207
    1  MOL  H10   19   0.274  -0.045   0.455
    1  MOL  H11   20   0.096  -0.040   0.455
    1  MOL  H12   21   0.178  -0.196   0.459
   12.19600     8.62400    11.57200
