ibuprofen
    33
  -0.6110000   2.1910000  -0.8100000  -2.5150000   3.1790000   0.3010000
  -1.1620000   2.5210000  -2.0480000  -3.0660000   3.5090000  -0.9370000
  -1.2870000   2.5200000   0.3650000  -2.3900000   3.1800000  -2.1110000
  -4.3140000   2.8250000  -3.6930000  -3.1670000   5.0500000  -3.6450000
  -0.6890000  -0.3470000   1.2670000  -0.4950000   0.5290000   3.6040000
  -0.6900000   2.1630000   1.7040000  -2.9790000   3.5340000  -3.4350000
  -1.1090000   0.7730000   2.2230000  -4.8600000   2.0690000  -2.9000000
  -4.8420000   3.1110000  -4.9130000   0.3460000   1.6770000  -0.7700000
  -3.0490000   3.4390000   1.2120000  -0.6280000   2.2620000  -2.9580000
  -4.0230000   4.0220000  -0.9770000  -3.8370000   5.4820000  -2.8940000
  -2.2040000   5.5690000  -3.5840000  -3.6050000   5.2740000  -4.6250000
   0.3970000  -0.3570000   1.1210000  -1.1630000  -0.2340000   0.2880000
  -0.9850000  -1.3240000   1.6620000   0.5980000   0.5550000   3.5540000
  -0.8210000   1.2880000   4.3230000  -0.7870000  -0.4530000   3.9910000
   0.4050000   2.2280000   1.6540000  -0.9980000   2.9350000   2.4220000
  -2.2940000   3.1890000  -4.2340000  -2.2000000   0.7360000   2.3310000
  -5.6940000   2.6690000  -5.1150000
