; mobley_2078467_GMX.itp created by acpype (v: 2023.10.27) on Wed May 20 23:41:42 2026

[ atomtypes ]
;name   bond_type     mass     charge   ptype   sigma         epsilon       Amb
 ca       ca          0.00000  0.00000   A     3.31521e-01   4.13379e-01 ; 1.86  0.0988
 c        c           0.00000  0.00000   A     3.31521e-01   4.13379e-01 ; 1.86  0.0988
 c3       c3          0.00000  0.00000   A     3.39771e-01   4.51035e-01 ; 1.91  0.1078
 o        o           0.00000  0.00000   A     3.04812e-01   6.12119e-01 ; 1.71  0.1463
 oh       oh          0.00000  0.00000   A     3.24287e-01   3.89112e-01 ; 1.82  0.0930
 ha       ha          0.00000  0.00000   A     2.62548e-01   6.73624e-02 ; 1.47  0.0161
 hc       hc          0.00000  0.00000   A     2.60018e-01   8.70272e-02 ; 1.46  0.0208
 ho       ho          0.00000  0.00000   A     5.37925e-02   1.96648e-02 ; 0.30  0.0047

[ moleculetype ]
;name            nrexcl
 mobley_2078467   3

[ atoms ]
;   nr  type  resi  res  atom  cgnr     charge      mass       ; qtot   bond_type
     1   ca     1   MOL    C1    1    -0.130000     12.01000 ; qtot -0.130
     2   ca     1   MOL    C2    2    -0.130000     12.01000 ; qtot -0.260
     3   ca     1   MOL    C3    3    -0.113000     12.01000 ; qtot -0.373
     4   ca     1   MOL    C4    4    -0.113000     12.01000 ; qtot -0.486
     5   ca     1   MOL    C5    5    -0.066300     12.01000 ; qtot -0.552
     6   ca     1   MOL    C6    6    -0.099300     12.01000 ; qtot -0.652
     7    c     1   MOL    C7    7     0.642103     12.01000 ; qtot -0.009
     8   c3     1   MOL    C8    8    -0.090100     12.01000 ; qtot -0.100
     9   c3     1   MOL    C9    9    -0.092100     12.01000 ; qtot -0.192
    10   c3     1   MOL   C10   10    -0.092100     12.01000 ; qtot -0.284
    11   c3     1   MOL   C11   11    -0.038100     12.01000 ; qtot -0.322
    12   c3     1   MOL   C12   12    -0.055400     12.01000 ; qtot -0.377
    13   c3     1   MOL   C13   13    -0.063700     12.01000 ; qtot -0.441
    14    o     1   MOL    O1   14    -0.552000     16.00000 ; qtot -0.993
    15   oh     1   MOL    O2   15    -0.606100     16.00000 ; qtot -1.599
    16   ha     1   MOL    H1   16     0.135000      1.00800 ; qtot -1.464
    17   ha     1   MOL    H2   17     0.135000      1.00800 ; qtot -1.329
    18   ha     1   MOL    H3   18     0.143000      1.00800 ; qtot -1.186
    19   ha     1   MOL    H4   19     0.143000      1.00800 ; qtot -1.043
    20   hc     1   MOL    H5   20     0.051033      1.00800 ; qtot -0.992
    21   hc     1   MOL    H6   21     0.051033      1.00800 ; qtot -0.941
    22   hc     1   MOL    H7   22     0.051033      1.00800 ; qtot -0.890
    23   hc     1   MOL    H8   23     0.035033      1.00800 ; qtot -0.855
    24   hc     1   MOL    H9   24     0.035033      1.00800 ; qtot -0.820
    25   hc     1   MOL   H10   25     0.035033      1.00800 ; qtot -0.785
    26   hc     1   MOL   H11   26     0.035033      1.00800 ; qtot -0.750
    27   hc     1   MOL   H12   27     0.035033      1.00800 ; qtot -0.715
    28   hc     1   MOL   H13   28     0.035033      1.00800 ; qtot -0.680
    29   hc     1   MOL   H14   29     0.049700      1.00800 ; qtot -0.630
    30   hc     1   MOL   H15   30     0.049700      1.00800 ; qtot -0.580
    31   hc     1   MOL   H16   31     0.085700      1.00800 ; qtot -0.495
    32   hc     1   MOL   H17   32     0.051700      1.00800 ; qtot -0.443
    33   ho     1   MOL   H18   33     0.443000      1.00800 ; qtot 0.000

[ bonds ]
;   ai     aj funct   r             k
     1      3   1    1.3986e-01    2.9644e+05 ;     C1 - C3    
     1      5   1    1.3986e-01    2.9644e+05 ;     C1 - C5    
     1     16   1    1.0860e-01    3.0183e+05 ;     C1 - H1    
     2      4   1    1.3986e-01    2.9644e+05 ;     C2 - C4    
     2      5   1    1.3986e-01    2.9644e+05 ;     C2 - C5    
     2     17   1    1.0860e-01    3.0183e+05 ;     C2 - H2    
     3      6   1    1.3986e-01    2.9644e+05 ;     C3 - C6    
     3     18   1    1.0860e-01    3.0183e+05 ;     C3 - H3    
     4      6   1    1.3986e-01    2.9644e+05 ;     C4 - C6    
     4     19   1    1.0860e-01    3.0183e+05 ;     C4 - H4    
     5     11   1    1.5147e-01    2.0410e+05 ;     C5 - C11   
     6     12   1    1.5147e-01    2.0410e+05 ;     C6 - C12   
     7     12   1    1.5270e-01    1.9652e+05 ;     C7 - C12   
     7     14   1    1.2190e-01    4.9421e+05 ;     C7 - O1    
     7     15   1    1.3556e-01    3.0064e+05 ;     C7 - O2    
     8     12   1    1.5354e-01    1.9154e+05 ;     C8 - C12   
     8     20   1    1.0962e-01    2.8891e+05 ;     C8 - H5    
     8     21   1    1.0962e-01    2.8891e+05 ;     C8 - H6    
     8     22   1    1.0962e-01    2.8891e+05 ;     C8 - H7    
     9     13   1    1.5354e-01    1.9154e+05 ;     C9 - C13   
     9     23   1    1.0962e-01    2.8891e+05 ;     C9 - H8    
     9     24   1    1.0962e-01    2.8891e+05 ;     C9 - H9    
     9     25   1    1.0962e-01    2.8891e+05 ;     C9 - H10   
    10     13   1    1.5354e-01    1.9154e+05 ;    C10 - C13   
    10     26   1    1.0962e-01    2.8891e+05 ;    C10 - H11   
    10     27   1    1.0962e-01    2.8891e+05 ;    C10 - H12   
    10     28   1    1.0962e-01    2.8891e+05 ;    C10 - H13   
    11     13   1    1.5354e-01    1.9154e+05 ;    C11 - C13   
    11     29   1    1.0962e-01    2.8891e+05 ;    C11 - H14   
    11     30   1    1.0962e-01    2.8891e+05 ;    C11 - H15   
    12     31   1    1.0962e-01    2.8891e+05 ;    C12 - H16   
    13     32   1    1.0962e-01    2.8891e+05 ;    C13 - H17   
    15     33   1    9.7250e-02    4.4811e+05 ;     O2 - H18   

[ pairs ]
;   ai     aj    funct
     1      4      1 ;     C1 - C4    
     1     12      1 ;     C1 - C12   
     1     13      1 ;     C1 - C13   
     1     17      1 ;     C1 - H2    
     1     29      1 ;     C1 - H14   
     1     30      1 ;     C1 - H15   
     2      3      1 ;     C2 - C3    
     2     12      1 ;     C2 - C12   
     2     13      1 ;     C2 - C13   
     2     29      1 ;     C2 - H14   
     2     30      1 ;     C2 - H15   
     3      7      1 ;     C3 - C7    
     3      8      1 ;     C3 - C8    
     3     11      1 ;     C3 - C11   
     3     19      1 ;     C3 - H4    
     3     31      1 ;     C3 - H16   
     4      7      1 ;     C4 - C7    
     4      8      1 ;     C4 - C8    
     4     11      1 ;     C4 - C11   
     4     18      1 ;     C4 - H3    
     4     31      1 ;     C4 - H16   
     5      6      1 ;     C5 - C6    
     5      9      1 ;     C5 - C9    
     5     10      1 ;     C5 - C10   
     5     18      1 ;     C5 - H3    
     5     19      1 ;     C5 - H4    
     5     32      1 ;     C5 - H17   
     6     14      1 ;     C6 - O1    
     6     15      1 ;     C6 - O2    
     6     17      1 ;     C6 - H2    
     6     20      1 ;     C6 - H5    
     6     21      1 ;     C6 - H6    
     6     22      1 ;     C6 - H7    
     7     20      1 ;     C7 - H5    
     7     21      1 ;     C7 - H6    
     7     22      1 ;     C7 - H7    
     8     14      1 ;     C8 - O1    
     8     15      1 ;     C8 - O2    
     9     26      1 ;     C9 - H11   
     9     27      1 ;     C9 - H12   
     9     28      1 ;     C9 - H13   
     9     29      1 ;     C9 - H14   
     9     30      1 ;     C9 - H15   
    10     23      1 ;    C10 - H8    
    10     24      1 ;    C10 - H9    
    10     25      1 ;    C10 - H10   
    10     29      1 ;    C10 - H14   
    10     30      1 ;    C10 - H15   
    11     17      1 ;    C11 - H2    
    11     23      1 ;    C11 - H8    
    11     24      1 ;    C11 - H9    
    11     25      1 ;    C11 - H10   
    11     26      1 ;    C11 - H11   
    11     27      1 ;    C11 - H12   
    11     28      1 ;    C11 - H13   
    12     18      1 ;    C12 - H3    
    12     19      1 ;    C12 - H4    
    12     33      1 ;    C12 - H18   
    14     31      1 ;     O1 - H16   
    14     33      1 ;     O1 - H18   
    15     31      1 ;     O2 - H16   
    16      2      1 ;     H1 - C2    
    16      6      1 ;     H1 - C6    
    16     11      1 ;     H1 - C11   
    16     18      1 ;     H1 - H3    
    17     19      1 ;     H2 - H4    
    20     31      1 ;     H5 - H16   
    21     31      1 ;     H6 - H16   
    22     31      1 ;     H7 - H16   
    23     32      1 ;     H8 - H17   
    24     32      1 ;     H9 - H17   
    25     32      1 ;    H10 - H17   
    26     32      1 ;    H11 - H17   
    27     32      1 ;    H12 - H17   
    28     32      1 ;    H13 - H17   
    29     32      1 ;    H14 - H17   
    30     32      1 ;    H15 - H17   

[ angles ]
;   ai     aj     ak    funct   theta         cth
     1      3      6      1    1.2002e+02    5.3279e+02 ;     C1 - C3     - C6    
     1      3     18      1    1.1988e+02    3.7572e+02 ;     C1 - C3     - H3    
     1      5      2      1    1.2002e+02    5.3279e+02 ;     C1 - C5     - C2    
     1      5     11      1    1.2083e+02    5.0827e+02 ;     C1 - C5     - C11   
     2      4      6      1    1.2002e+02    5.3279e+02 ;     C2 - C4     - C6    
     2      4     19      1    1.1988e+02    3.7572e+02 ;     C2 - C4     - H4    
     2      5     11      1    1.2083e+02    5.0827e+02 ;     C2 - C5     - C11   
     3      1      5      1    1.2002e+02    5.3279e+02 ;     C3 - C1     - C5    
     3      1     16      1    1.1988e+02    3.7572e+02 ;     C3 - C1     - H1    
     3      6      4      1    1.2002e+02    5.3279e+02 ;     C3 - C6     - C4    
     3      6     12      1    1.2083e+02    5.0827e+02 ;     C3 - C6     - C12   
     4      2      5      1    1.2002e+02    5.3279e+02 ;     C4 - C2     - C5    
     4      2     17      1    1.1988e+02    3.7572e+02 ;     C4 - C2     - H2    
     4      6     12      1    1.2083e+02    5.0827e+02 ;     C4 - C6     - C12   
     5      1     16      1    1.1988e+02    3.7572e+02 ;     C5 - C1     - H1    
     5      2     17      1    1.1988e+02    3.7572e+02 ;     C5 - C2     - H2    
     5     11     13      1    1.1242e+02    5.0484e+02 ;     C5 - C11    - C13   
     5     11     29      1    1.1063e+02    3.6493e+02 ;     C5 - C11    - H14   
     5     11     30      1    1.1063e+02    3.6493e+02 ;     C5 - C11    - H15   
     6      3     18      1    1.1988e+02    3.7572e+02 ;     C6 - C3     - H3    
     6      4     19      1    1.1988e+02    3.7572e+02 ;     C6 - C4     - H4    
     6     12      7      1    1.1116e+02    5.0911e+02 ;     C6 - C12    - C7    
     6     12      8      1    1.1242e+02    5.0484e+02 ;     C6 - C12    - C8    
     6     12     31      1    1.1063e+02    3.6493e+02 ;     C6 - C12    - H16   
     7     12      8      1    1.1143e+02    5.0509e+02 ;     C7 - C12    - C8    
     7     12     31      1    1.0895e+02    3.6510e+02 ;     C7 - C12    - H16   
     7     15     33      1    1.0654e+02    5.7287e+02 ;     C7 - O2     - H18   
     8     12     31      1    1.0968e+02    3.6208e+02 ;     C8 - C12    - H16   
     9     13     10      1    1.1263e+02    5.0099e+02 ;     C9 - C13    - C10   
     9     13     11      1    1.1263e+02    5.0099e+02 ;     C9 - C13    - C11   
     9     13     32      1    1.0968e+02    3.6208e+02 ;     C9 - C13    - H17   
    10     13     11      1    1.1263e+02    5.0099e+02 ;    C10 - C13    - C11   
    10     13     32      1    1.0968e+02    3.6208e+02 ;    C10 - C13    - H17   
    11     13     32      1    1.0968e+02    3.6208e+02 ;    C11 - C13    - H17   
    12      7     14      1    1.2290e+02    6.3973e+02 ;    C12 - C7     - O1    
    12      7     15      1    1.1274e+02    6.4785e+02 ;    C12 - C7     - O2    
    12      8     20      1    1.0968e+02    3.6208e+02 ;    C12 - C8     - H5    
    12      8     21      1    1.0968e+02    3.6208e+02 ;    C12 - C8     - H6    
    12      8     22      1    1.0968e+02    3.6208e+02 ;    C12 - C8     - H7    
    13      9     23      1    1.0968e+02    3.6208e+02 ;    C13 - C9     - H8    
    13      9     24      1    1.0968e+02    3.6208e+02 ;    C13 - C9     - H9    
    13      9     25      1    1.0968e+02    3.6208e+02 ;    C13 - C9     - H10   
    13     10     26      1    1.0968e+02    3.6208e+02 ;    C13 - C10    - H11   
    13     10     27      1    1.0968e+02    3.6208e+02 ;    C13 - C10    - H12   
    13     10     28      1    1.0968e+02    3.6208e+02 ;    C13 - C10    - H13   
    13     11     29      1    1.0968e+02    3.6208e+02 ;    C13 - C11    - H14   
    13     11     30      1    1.0968e+02    3.6208e+02 ;    C13 - C11    - H15   
    14      7     15      1    1.2209e+02    8.5379e+02 ;     O1 - C7     - O2    
    20      8     21      1    1.0773e+02    2.9957e+02 ;     H5 - C8     - H6    
    20      8     22      1    1.0773e+02    2.9957e+02 ;     H5 - C8     - H7    
    21      8     22      1    1.0773e+02    2.9957e+02 ;     H6 - C8     - H7    
    23      9     24      1    1.0773e+02    2.9957e+02 ;     H8 - C9     - H9    
    23      9     25      1    1.0773e+02    2.9957e+02 ;     H8 - C9     - H10   
    24      9     25      1    1.0773e+02    2.9957e+02 ;     H9 - C9     - H10   
    26     10     27      1    1.0773e+02    2.9957e+02 ;    H11 - C10    - H12   
    26     10     28      1    1.0773e+02    2.9957e+02 ;    H11 - C10    - H13   
    27     10     28      1    1.0773e+02    2.9957e+02 ;    H12 - C10    - H13   
    29     11     30      1    1.0773e+02    2.9957e+02 ;    H14 - C11    - H15   

[ dihedrals ] ; propers
; for gromacs 4.5 or higher, using funct 9
;    i      j      k      l   func   phase     kd      pn
     1      3      6      4      9   180.00  15.16700   2 ;     C1-    C3-    C6-    C4
     1      3      6     12      9   180.00  15.16700   2 ;     C1-    C3-    C6-   C12
     1      5      2      4      9   180.00  15.16700   2 ;     C1-    C5-    C2-    C4
     1      5      2     17      9   180.00  15.16700   2 ;     C1-    C5-    C2-    H2
     1      5     11     13      9   180.00   1.00416   2 ;     C1-    C5-   C11-   C13
     1      5     11     29      9     0.00   0.00000   0 ;     C1-    C5-   C11-   H14
     1      5     11     30      9     0.00   0.00000   0 ;     C1-    C5-   C11-   H15
     2      4      6      3      9   180.00  15.16700   2 ;     C2-    C4-    C6-    C3
     2      4      6     12      9   180.00  15.16700   2 ;     C2-    C4-    C6-   C12
     2      5     11     13      9   180.00   1.00416   2 ;     C2-    C5-   C11-   C13
     2      5     11     29      9     0.00   0.00000   0 ;     C2-    C5-   C11-   H14
     2      5     11     30      9     0.00   0.00000   0 ;     C2-    C5-   C11-   H15
     3      1      5      2      9   180.00  15.16700   2 ;     C3-    C1-    C5-    C2
     3      1      5     11      9   180.00  15.16700   2 ;     C3-    C1-    C5-   C11
     3      6      4     19      9   180.00  15.16700   2 ;     C3-    C6-    C4-    H4
     3      6     12      7      9     0.00   0.00000   0 ;     C3-    C6-   C12-    C7
     3      6     12      8      9   180.00   1.00416   2 ;     C3-    C6-   C12-    C8
     3      6     12     31      9     0.00   0.00000   0 ;     C3-    C6-   C12-   H16
     3      6     12     31      9     0.00   0.00000   0 ;     C3-    C6-   C12-   H16
     4      2      5     11      9   180.00  15.16700   2 ;     C4-    C2-    C5-   C11
     4      6      3     18      9   180.00  15.16700   2 ;     C4-    C6-    C3-    H3
     4      6     12      7      9     0.00   0.00000   0 ;     C4-    C6-   C12-    C7
     4      6     12      8      9   180.00   1.00416   2 ;     C4-    C6-   C12-    C8
     4      6     12     31      9     0.00   0.00000   0 ;     C4-    C6-   C12-   H16
     4      6     12     31      9     0.00   0.00000   0 ;     C4-    C6-   C12-   H16
     5      1      3      6      9   180.00  15.16700   2 ;     C5-    C1-    C3-    C6
     5      1      3     18      9   180.00  15.16700   2 ;     C5-    C1-    C3-    H3
     5      2      4      6      9   180.00  15.16700   2 ;     C5-    C2-    C4-    C6
     5      2      4     19      9   180.00  15.16700   2 ;     C5-    C2-    C4-    H4
     5     11     13      9      9     0.00   0.65084   3 ;     C5-   C11-   C13-    C9
     5     11     13     10      9     0.00   0.65084   3 ;     C5-   C11-   C13-   C10
     5     11     13     32      9     0.00   0.65084   3 ;     C5-   C11-   C13-   H17
     6      4      2     17      9   180.00  15.16700   2 ;     C6-    C4-    C2-    H2
     6     12      7     14      9   180.00   0.00000   2 ;     C6-   C12-    C7-    O1
     6     12      7     15      9   180.00   0.00000   2 ;     C6-   C12-    C7-    O2
     6     12      8     20      9     0.00   0.65084   3 ;     C6-   C12-    C8-    H5
     6     12      8     21      9     0.00   0.65084   3 ;     C6-   C12-    C8-    H6
     6     12      8     22      9     0.00   0.65084   3 ;     C6-   C12-    C8-    H7
     7     12      8     20      9     0.00   0.65084   3 ;     C7-   C12-    C8-    H5
     7     12      8     21      9     0.00   0.65084   3 ;     C7-   C12-    C8-    H6
     7     12      8     22      9     0.00   0.65084   3 ;     C7-   C12-    C8-    H7
     8     12      7     14      9     0.00   2.84512   1 ;     C8-   C12-    C7-    O1
     8     12      7     14      9   180.00   0.83680   2 ;     C8-   C12-    C7-    O1
     8     12      7     14      9   180.00   1.84096   3 ;     C8-   C12-    C7-    O1
     8     12      7     15      9   180.00   0.00000   2 ;     C8-   C12-    C7-    O2
     9     13     10     26      9     0.00   0.54392   3 ;     C9-   C13-   C10-   H11
     9     13     10     27      9     0.00   0.54392   3 ;     C9-   C13-   C10-   H12
     9     13     10     28      9     0.00   0.54392   3 ;     C9-   C13-   C10-   H13
     9     13     11     29      9     0.00   0.54392   3 ;     C9-   C13-   C11-   H14
     9     13     11     30      9     0.00   0.54392   3 ;     C9-   C13-   C11-   H15
    10     13      9     23      9     0.00   0.54392   3 ;    C10-   C13-    C9-    H8
    10     13      9     24      9     0.00   0.54392   3 ;    C10-   C13-    C9-    H9
    10     13      9     25      9     0.00   0.54392   3 ;    C10-   C13-    C9-   H10
    10     13     11     29      9     0.00   0.54392   3 ;    C10-   C13-   C11-   H14
    10     13     11     30      9     0.00   0.54392   3 ;    C10-   C13-   C11-   H15
    11      5      2     17      9   180.00  15.16700   2 ;    C11-    C5-    C2-    H2
    11     13      9     23      9     0.00   0.54392   3 ;    C11-   C13-    C9-    H8
    11     13      9     24      9     0.00   0.54392   3 ;    C11-   C13-    C9-    H9
    11     13      9     25      9     0.00   0.54392   3 ;    C11-   C13-    C9-   H10
    11     13     10     26      9     0.00   0.54392   3 ;    C11-   C13-   C10-   H11
    11     13     10     27      9     0.00   0.54392   3 ;    C11-   C13-   C10-   H12
    11     13     10     28      9     0.00   0.54392   3 ;    C11-   C13-   C10-   H13
    12      6      3     18      9   180.00  15.16700   2 ;    C12-    C6-    C3-    H3
    12      6      4     19      9   180.00  15.16700   2 ;    C12-    C6-    C4-    H4
    12      7     15     33      9   180.00   7.53120   2 ;    C12-    C7-    O2-   H18
    14      7     12     31      9     0.00  16.86152   1 ;     O1-    C7-   C12-   H16
    14      7     12     31      9   180.00  15.31344   2 ;     O1-    C7-   C12-   H16
    14      7     15     33      9     0.00   7.94960   1 ;     O1-    C7-    O2-   H18
    14      7     15     33      9   180.00   9.62320   2 ;     O1-    C7-    O2-   H18
    15      7     12     31      9   180.00   0.00000   2 ;     O2-    C7-   C12-   H16
    16      1      3      6      9   180.00  15.16700   2 ;     H1-    C1-    C3-    C6
    16      1      3     18      9   180.00  15.16700   2 ;     H1-    C1-    C3-    H3
    16      1      5      2      9   180.00  15.16700   2 ;     H1-    C1-    C5-    C2
    16      1      5     11      9   180.00  15.16700   2 ;     H1-    C1-    C5-   C11
    17      2      4     19      9   180.00  15.16700   2 ;     H2-    C2-    C4-    H4
    20      8     12     31      9     0.00   0.50208   3 ;     H5-    C8-   C12-   H16
    21      8     12     31      9     0.00   0.50208   3 ;     H6-    C8-   C12-   H16
    22      8     12     31      9     0.00   0.50208   3 ;     H7-    C8-   C12-   H16
    23      9     13     32      9     0.00   0.50208   3 ;     H8-    C9-   C13-   H17
    24      9     13     32      9     0.00   0.50208   3 ;     H9-    C9-   C13-   H17
    25      9     13     32      9     0.00   0.50208   3 ;    H10-    C9-   C13-   H17
    26     10     13     32      9     0.00   0.50208   3 ;    H11-   C10-   C13-   H17
    27     10     13     32      9     0.00   0.50208   3 ;    H12-   C10-   C13-   H17
    28     10     13     32      9     0.00   0.50208   3 ;    H13-   C10-   C13-   H17
    29     11     13     32      9     0.00   0.50208   3 ;    H14-   C11-   C13-   H17
    30     11     13     32      9     0.00   0.50208   3 ;    H15-   C11-   C13-   H17

[ dihedrals ] ; impropers
; treated as propers in GROMACS to use correct AMBER analytical function
;    i      j      k      l   func   phase     kd      pn
     1      2      5     11      4   180.00   4.60240   2 ;     C1-    C2-    C5-   C11
     1      6      3     18      4   180.00   4.60240   2 ;     C1-    C6-    C3-    H3
     2      6      4     19      4   180.00   4.60240   2 ;     C2-    C6-    C4-    H4
     4      5      2     17      4   180.00   4.60240   2 ;     C4-    C5-    C2-    H2
    12      3      6      4      4   180.00   4.60240   2 ;    C12-    C3-    C6-    C4
    12     14      7     15      4   180.00   4.60240   2 ;    C12-    O1-    C7-    O2
    16      1      5      3      4   180.00   4.60240   2 ;     H1-    C1-    C5-    C3
