mobley_2078467_GMX.gro created by acpype (v: 2023.10.27) on Wed May 20 23:41:42 2026
 33
    1  MOL   C1    1  -0.061   0.219  -0.081
    1  MOL   C2    2  -0.252   0.318   0.030
    1  MOL   C3    3  -0.116   0.252  -0.205
    1  MOL   C4    4  -0.307   0.351  -0.094
    1  MOL   C5    5  -0.129   0.252   0.036
    1  MOL   C6    6  -0.239   0.318  -0.211
    1  MOL   C7    7  -0.431   0.283  -0.369
    1  MOL   C8    8  -0.317   0.505  -0.365
    1  MOL   C9    9  -0.069  -0.035   0.127
    1  MOL  C10   10  -0.050   0.053   0.360
    1  MOL  C11   11  -0.069   0.216   0.170
    1  MOL  C12   12  -0.298   0.353  -0.344
    1  MOL  C13   13  -0.111   0.077   0.222
    1  MOL   O1   14  -0.486   0.207  -0.290
    1  MOL   O2   15  -0.484   0.311  -0.491
    1  MOL   H1   16   0.035   0.168  -0.077
    1  MOL   H2   17  -0.305   0.344   0.121
    1  MOL   H3   18  -0.063   0.226  -0.296
    1  MOL   H4   19  -0.402   0.402  -0.098
    1  MOL   H5   20  -0.384   0.548  -0.289
    1  MOL   H6   21  -0.220   0.557  -0.358
    1  MOL   H7   22  -0.361   0.527  -0.463
    1  MOL   H8   23   0.040  -0.036   0.112
    1  MOL   H9   24  -0.116  -0.023   0.029
    1  MOL  H10   25  -0.099  -0.132   0.166
    1  MOL  H11   26   0.060   0.056   0.355
    1  MOL  H12   27  -0.082   0.129   0.432
    1  MOL  H13   28  -0.079  -0.045   0.399
    1  MOL  H14   29   0.041   0.223   0.165
    1  MOL  H15   30  -0.100   0.294   0.242
    1  MOL  H16   31  -0.229   0.319  -0.423
    1  MOL  H17   32  -0.220   0.074   0.233
    1  MOL  H18   33  -0.569   0.267  -0.512
   12.58400    13.78600    18.87600
