%VERSION  VERSION_STAMP = V0001.000  DATE = 05/20/26  23:41:57                  
%FLAG TITLE                                                                     
%FORMAT(20a4)                                                                   
ibuprofen                                                                       
%FLAG POINTERS                                                                  
%FORMAT(10I8)                                                                   
      33       7      18      15      38      20      66      27       0       0
     173       1      15      20      27       9      15      17       8       0
       0       0       0       0       0       0       0       0      33       0
       0
%FLAG ATOM_NAME                                                                 
%FORMAT(20a4)                                                                   
C1  C2  C3  C4  C5  C6  C7  C8  C9  C10 C11 C12 C13 O1  O2  H1  H2  H3  H4  H5  
H6  H7  H8  H9  H10 H11 H12 H13 H14 H15 H16 H17 H18 
%FLAG CHARGE                                                                    
%FORMAT(5E16.8)                                                                 
 -2.36889900E+00 -2.36889900E+00 -2.05911990E+00 -2.05911990E+00 -1.20813849E+00
 -1.80947439E+00  1.16823165E+01 -1.64182923E+00 -1.67827383E+00 -1.67827383E+00
 -6.94269630E-01 -1.00951542E+00 -1.16076051E+00 -1.00587096E+01 -1.10445360E+01
  2.46001050E+00  2.46001050E+00  2.60578890E+00  2.60578890E+00  9.29938636E-01
  9.29938636E-01  9.29938636E-01  6.38381836E-01  6.38381836E-01  6.38381836E-01
  6.38381836E-01  6.38381836E-01  6.38381836E-01  9.05648310E-01  9.05648310E-01
  1.56165111E+00  9.42092910E-01  8.07247890E+00
%FLAG ATOMIC_NUMBER                                                             
%FORMAT(10I8)                                                                   
       6       6       6       6       6       6       6       6       6       6
       6       6       6       8       8       1       1       1       1       1
       1       1       1       1       1       1       1       1       1       1
       1       1       1
%FLAG MASS                                                                      
%FORMAT(5E16.8)                                                                 
  1.20100000E+01  1.20100000E+01  1.20100000E+01  1.20100000E+01  1.20100000E+01
  1.20100000E+01  1.20100000E+01  1.20100000E+01  1.20100000E+01  1.20100000E+01
  1.20100000E+01  1.20100000E+01  1.20100000E+01  1.60000000E+01  1.60000000E+01
  1.00800000E+00  1.00800000E+00  1.00800000E+00  1.00800000E+00  1.00800000E+00
  1.00800000E+00  1.00800000E+00  1.00800000E+00  1.00800000E+00  1.00800000E+00
  1.00800000E+00  1.00800000E+00  1.00800000E+00  1.00800000E+00  1.00800000E+00
  1.00800000E+00  1.00800000E+00  1.00800000E+00
%FLAG ATOM_TYPE_INDEX                                                           
%FORMAT(10I8)                                                                   
       1       1       1       1       1       1       1       2       2       2
       2       2       2       3       4       5       5       5       5       6
       6       6       6       6       6       6       6       6       6       6
       6       6       7
%FLAG NUMBER_EXCLUDED_ATOMS                                                     
%FORMAT(10I8)                                                                   
      13      12      11      10      12      13       9       7      12      11
      12       9       9       3       2       1       1       1       1       3
       2       1       3       2       1       3       2       1       2       1
       1       1       1
%FLAG NONBONDED_PARM_INDEX                                                      
%FORMAT(10I8)                                                                   
       1       2       4       7      11      16      22       2       3       5
       8      12      17      23       4       5       6       9      13      18
      24       7       8       9      10      14      19      25      11      12
      13      14      15      20      26      16      17      18      19      20
      21      27      22      23      24      25      26      27      28
%FLAG RESIDUE_LABEL                                                             
%FORMAT(20a4)                                                                   
MOL 
%FLAG RESIDUE_POINTER                                                           
%FORMAT(10I8)                                                                   
       1
%FLAG BOND_FORCE_CONSTANT                                                       
%FORMAT(5E16.8)                                                                 
  3.54250000E+02  3.60690000E+02  2.43910000E+02  2.34850000E+02  5.90600000E+02
  3.59270000E+02  2.28890000E+02  3.45250000E+02  5.35510000E+02
%FLAG BOND_EQUIL_VALUE                                                          
%FORMAT(5E16.8)                                                                 
  1.39860000E+00  1.08600000E+00  1.51470000E+00  1.52700000E+00  1.21900000E+00
  1.35560000E+00  1.53540000E+00  1.09620000E+00  9.72500000E-01
%FLAG ANGLE_FORCE_CONSTANT                                                      
%FORMAT(5E16.8)                                                                 
  6.36700000E+01  4.49000000E+01  6.07400000E+01  6.03300000E+01  4.36100000E+01
  6.08400000E+01  6.03600000E+01  4.36300000E+01  6.84600000E+01  4.32700000E+01
  5.98700000E+01  7.64500000E+01  7.74200000E+01  1.02030000E+02  3.58000000E+01
%FLAG ANGLE_EQUIL_VALUE                                                         
%FORMAT(5E16.8)                                                                 
  2.09474507E+00  2.09230160E+00  2.10888224E+00  1.96209999E+00  1.93085858E+00
  1.94010883E+00  1.94482122E+00  1.90153704E+00  1.85947458E+00  1.91427794E+00
  1.96576518E+00  2.14501057E+00  1.96768504E+00  2.13087340E+00  1.88024401E+00
%FLAG DIHEDRAL_FORCE_CONSTANT                                                   
%FORMAT(5E16.8)                                                                 
  3.62500000E+00  2.40000000E-01  0.00000000E+00  0.00000000E+00  1.55555556E-01
  0.00000000E+00  6.80000000E-01  2.00000000E-01  4.40000000E-01  1.30000000E-01
  1.80000000E+00  4.03000000E+00  3.66000000E+00  1.90000000E+00  2.30000000E+00
  1.20000000E-01  1.10000000E+00
%FLAG DIHEDRAL_PERIODICITY                                                      
%FORMAT(5E16.8)                                                                 
  2.00000000E+00  2.00000000E+00  1.00000000E+00  2.00000000E+00  3.00000000E+00
  2.00000000E+00  1.00000000E+00  2.00000000E+00  3.00000000E+00  3.00000000E+00
  2.00000000E+00  1.00000000E+00  2.00000000E+00  1.00000000E+00  2.00000000E+00
  3.00000000E+00  2.00000000E+00
%FLAG DIHEDRAL_PHASE                                                            
%FORMAT(5E16.8)                                                                 
  3.14159400E+00  3.14159400E+00  0.00000000E+00  0.00000000E+00  0.00000000E+00
  3.14159400E+00  0.00000000E+00  3.14159400E+00  3.14159400E+00  0.00000000E+00
  3.14159400E+00  0.00000000E+00  3.14159400E+00  0.00000000E+00  3.14159400E+00
  0.00000000E+00  3.14159400E+00
%FLAG SCEE_SCALE_FACTOR                                                         
%FORMAT(5E16.8)                                                                 
  1.20000000E+00  1.20000000E+00  1.20000000E+00  1.20000000E+00  1.20000000E+00
  1.20000000E+00  1.20000000E+00  1.20000000E+00  1.20000000E+00  1.20000000E+00
  1.20000000E+00  1.20000000E+00  1.20000000E+00  1.20000000E+00  1.20000000E+00
  1.20000000E+00  0.00000000E+00
%FLAG SCNB_SCALE_FACTOR                                                         
%FORMAT(5E16.8)                                                                 
  2.00000000E+00  2.00000000E+00  2.00000000E+00  2.00000000E+00  2.00000000E+00
  2.00000000E+00  2.00000000E+00  2.00000000E+00  2.00000000E+00  2.00000000E+00
  2.00000000E+00  2.00000000E+00  2.00000000E+00  2.00000000E+00  2.00000000E+00
  2.00000000E+00  0.00000000E+00
%FLAG SOLTY                                                                     
%FORMAT(5E16.8)                                                                 
  0.00000000E+00  0.00000000E+00  0.00000000E+00  0.00000000E+00  0.00000000E+00
  0.00000000E+00  0.00000000E+00  0.00000000E+00
%FLAG LENNARD_JONES_ACOEF                                                       
%FORMAT(5E16.8)                                                                 
  6.96551276E+05  8.43969952E+05  1.02073671E+06  5.17507491E+05  6.30925504E+05
  3.76435470E+05  5.92438683E+05  7.18991463E+05  4.37717034E+05  5.03152404E+05
  7.52549148E+04  9.27554496E+04  5.27277400E+04  6.30298721E+04  6.90855956E+03
  8.12662403E+04  1.00235148E+05  5.68021765E+04  6.80216136E+04  7.41026906E+03
  7.94617769E+03  2.25372434E+02  3.03553352E+02  1.15813907E+02  1.74176419E+02
  8.53132435E+00  8.80612241E+00  1.10360882E-05
%FLAG LENNARD_JONES_BCOEF                                                       
%FORMAT(5E16.8)                                                                 
  5.24668528E+02  5.90251928E+02  6.63431737E+02  4.98871431E+02  5.62969425E+02
  4.69350655E+02  4.76608379E+02  5.36620538E+02  4.51916854E+02  4.32634597E+02
  1.09570372E+02  1.24325688E+02  1.01173582E+02  9.87712192E+01  2.10929191E+01
  1.21392023E+02  1.37787728E+02  1.11953944E+02  1.09393126E+02  2.32899892E+01
  2.57122925E+01  4.40751799E+00  5.22789272E+00  3.48534600E+00  3.81654050E+00
  5.44840215E-01  5.90150328E-01  4.55498033E-04
%FLAG BONDS_INC_HYDROGEN                                                        
%FORMAT(10I8)                                                                   
       0      45       2       3      48       2       6      51       2       9
      54       2      21      57       8      21      60       8      21      63
       8      24      66       8      24      69       8      24      72       8
      27      75       8      27      78       8      27      81       8      30
      84       8      30      87       8      33      90       8      36      93
       8      42      96       9
%FLAG BONDS_WITHOUT_HYDROGEN                                                    
%FORMAT(10I8)                                                                   
       0       6       1       0      12       1       3       9       1       3
      12       1       6      15       1       9      15       1      12      30
       3      15      33       3      18      33       4      18      39       5
      18      42       6      21      33       7      24      36       7      27
      36       7      30      36       7
%FLAG ANGLES_INC_HYDROGEN                                                       
%FORMAT(10I8)                                                                   
       0       6      51       2       3       9      54       2       6       0
      45       2       9       3      48       2      12       0      45       2
      12       3      48       2      12      30      84       5      12      30
      87       5      15       6      51       2      15       9      54       2
      15      33      90       5      18      33      90       8      18      42
      96       9      21      33      90      10      24      36      93      10
      27      36      93      10      30      36      93      10      33      21
      57      10      33      21      60      10      33      21      63      10
      36      24      66      10      36      24      69      10      36      24
      72      10      36      27      75      10      36      27      78      10
      36      27      81      10      36      30      84      10      36      30
      87      10      57      21      60      15      57      21      63      15
      60      21      63      15      66      24      69      15      66      24
      72      15      69      24      72      15      75      27      78      15
      75      27      81      15      78      27      81      15      84      30
      87      15
%FLAG ANGLES_WITHOUT_HYDROGEN                                                   
%FORMAT(10I8)                                                                   
       0       6      15       1       0      12       3       1       0      12
      30       3       3       9      15       1       3      12      30       3
       6       0      12       1       6      15       9       1       6      15
      33       3       9       3      12       1       9      15      33       3
      12      30      36       4      15      33      18       6      15      33
      21       4      18      33      21       7      24      36      27      11
      24      36      30      11      27      36      30      11      33      18
      39      12      33      18      42      13      39      18      42      14
%FLAG DIHEDRALS_INC_HYDROGEN                                                    
%FORMAT(10I8)                                                                   
       0      12       3      48       1       0      12      30      84       3
       0      12      30      87       3      45       0      12       3       1
       3      12      30      84       3       3      12      30      87       3
       6      15       9      54       1       6      15      33      90       3
       6      15     -33      90       4       9      15       6      51       1
       9      15      33      90       3       9      15     -33      90       4
      12       0       6      51       1      12       3       9      54       1
      12      30      36      93       5      45       0       6      15       1
      15       9       3      48       1      15      33      21      57       5
      15      33      21      60       5      15      33      21      63       5
      18      33      21      57       5      18      33      21      60       5
      18      33      21      63       5      24      36      27      75      10
      24      36      27      78      10      24      36      27      81      10
      24      36      30      84      10      24      36      30      87      10
      27      36      24      66      10      27      36      24      69      10
      27      36      24      72      10      27      36      30      84      10
      27      36      30      87      10      45       0      12      30       1
      30      12       3      48       1      30      36      24      66      10
      30      36      24      69      10      30      36      24      72      10
      30      36      27      75      10      30      36      27      78      10
      30      36      27      81      10      33      15       6      51       1
      33      15       9      54       1      33      18      42      96      11
      39      18      33      90      12      39      18     -33      90      13
      39      18      42      96      14      39      18     -42      96      15
      42      18      33      90       6      45       0       6      51       1
      48       3       9      54       1      57      21      33      90      16
      60      21      33      90      16      63      21      33      90      16
      66      24      36      93      16      69      24      36      93      16
      72      24      36      93      16      75      27      36      93      16
      78      27      36      93      16      81      27      36      93      16
      84      30      36      93      16      87      30      36      93      16
      45       0     -12      -6      17       9      12      -3     -48      17
       0      15      -6     -51      17       3      15      -9     -54      17
%FLAG DIHEDRALS_WITHOUT_HYDROGEN                                                
%FORMAT(10I8)                                                                   
       0       6      15       9       1       0       6      15      33       1
       0      12      -3       9       1       0      12      30      36       2
       3       9      15       6       1       3       9      15      33       1
       6       0     -12       3       1       3      12      30      36       2
       6       0      12      30       1       6      15      33      18       4
       6      15      33      21       2       9       3      12      30       1
       9      15      33      18       4       9      15      33      21       2
      12       0       6      15       1      12       3      -9      15       1
      12      30      36      24       5      12      30      36      27       5
      15      33      18      39       6      15      33      18      42       6
      21      33      18      39       7      21      33     -18      39       8
      21      33     -18      39       9      21      33      18      42       6
       0       3     -12     -30      17      33       6     -15      -9      17
      33      39     -18     -42      17
%FLAG EXCLUDED_ATOMS_LIST                                                       
%FORMAT(10I8)                                                                   
       2       3       4       5       6      11      12      13      16      17
      18      29      30       3       4       5       6      11      12      13
      16      17      19      29      30       4       5       6       7       8
      11      12      16      18      19      31       5       6       7       8
      11      12      17      18      19      31       6       9      10      11
      13      16      17      18      19      29      30      32       7       8
      12      14      15      16      17      18      19      20      21      22
      31       8      12      14      15      20      21      22      31      33
      12      14      15      20      21      22      31      10      11      13
      23      24      25      26      27      28      29      30      32      11
      13      23      24      25      26      27      28      29      30      32
      13      16      17      23      24      25      26      27      28      29
      30      32      14      15      18      19      20      21      22      31
      33      23      24      25      26      27      28      29      30      32
      15      31      33      31      33      18      19       0       0      21
      22      31      22      31      31      24      25      32      25      32
      32      27      28      32      28      32      32      30      32      32
       0       0       0
%FLAG HBOND_ACOEF                                                               
%FORMAT(5E16.8)                                                                 

%FLAG HBOND_BCOEF                                                               
%FORMAT(5E16.8)                                                                 

%FLAG HBCUT                                                                     
%FORMAT(5E16.8)                                                                 

%FLAG AMBER_ATOM_TYPE                                                           
%FORMAT(20a4)                                                                   
ca  ca  ca  ca  ca  ca  c   c3  c3  c3  c3  c3  c3  o   oh  ha  ha  ha  ha  hc  
hc  hc  hc  hc  hc  hc  hc  hc  hc  hc  hc  hc  ho  
%FLAG TREE_CHAIN_CLASSIFICATION                                                 
%FORMAT(20a4)                                                                   
BLA BLA BLA BLA BLA BLA BLA BLA BLA BLA BLA BLA BLA BLA BLA BLA BLA BLA BLA BLA 
BLA BLA BLA BLA BLA BLA BLA BLA BLA BLA BLA BLA BLA 
%FLAG JOIN_ARRAY                                                                
%FORMAT(10I8)                                                                   
       0       0       0       0       0       0       0       0       0       0
       0       0       0       0       0       0       0       0       0       0
       0       0       0       0       0       0       0       0       0       0
       0       0       0
%FLAG IROTAT                                                                    
%FORMAT(10I8)                                                                   
       0       0       0       0       0       0       0       0       0       0
       0       0       0       0       0       0       0       0       0       0
       0       0       0       0       0       0       0       0       0       0
       0       0       0
%FLAG RADIUS_SET                                                                
%FORMAT(1a80)                                                                   
modified Bondi radii (mbondi)                                                   
%FLAG RADII                                                                     
%FORMAT(5E16.8)                                                                 
  1.70000000E+00  1.70000000E+00  1.70000000E+00  1.70000000E+00  1.70000000E+00
  1.70000000E+00  1.70000000E+00  1.70000000E+00  1.70000000E+00  1.70000000E+00
  1.70000000E+00  1.70000000E+00  1.70000000E+00  1.50000000E+00  1.50000000E+00
  1.30000000E+00  1.30000000E+00  1.30000000E+00  1.30000000E+00  1.30000000E+00
  1.30000000E+00  1.30000000E+00  1.30000000E+00  1.30000000E+00  1.30000000E+00
  1.30000000E+00  1.30000000E+00  1.30000000E+00  1.30000000E+00  1.30000000E+00
  1.30000000E+00  1.30000000E+00  8.00000000E-01
%FLAG SCREEN                                                                    
%FORMAT(5E16.8)                                                                 
  7.20000000E-01  7.20000000E-01  7.20000000E-01  7.20000000E-01  7.20000000E-01
  7.20000000E-01  7.20000000E-01  7.20000000E-01  7.20000000E-01  7.20000000E-01
  7.20000000E-01  7.20000000E-01  7.20000000E-01  8.50000000E-01  8.50000000E-01
  8.50000000E-01  8.50000000E-01  8.50000000E-01  8.50000000E-01  8.50000000E-01
  8.50000000E-01  8.50000000E-01  8.50000000E-01  8.50000000E-01  8.50000000E-01
  8.50000000E-01  8.50000000E-01  8.50000000E-01  8.50000000E-01  8.50000000E-01
  8.50000000E-01  8.50000000E-01  8.50000000E-01
%FLAG IPOL                                                                      
%FORMAT(1I8)                                                                    
       0
