; mobley_2078467_GMX_OPLS.itp created by acpype (v: 2023.10.27) on Wed May 20 23:41:42 2026

; For OPLS atomtypes manual fine tuning
; AC_at:OPLS_at:OPLScode: Possible_Alternatives (see ffoplsaa.atp and ffoplsaanb.itp)
; ca:CA:opls_145: ['166', '501', '502']
; c:C:opls_235: ['271']
; c3:CT:opls_135: ['136', '137', '149', '157', '158', '206', '209', '210', '223B', '224B', '245', '246', '274', '283', '284', '285', '292', '292B', '293B', '296', '307', '308', '505']
; o:O:opls_236: ['272']
; oh:OH:opls_154: ['167']
; ha:HA:opls_146: []
; hc:HC:opls_140: []
; ho:HO:opls_155: ['168']

[ moleculetype ]
;name            nrexcl
 mobley_2078467   3

[ atoms ]
;   nr  type  resi  res  atom  cgnr     charge      mass       ; qtot   bond_type
     1 opls_145     1   MOL    C1    1    -0.130000     12.01100 ; qtot -0.130  CA  
     2 opls_145     1   MOL    C2    2    -0.130000     12.01100 ; qtot -0.260  CA  
     3 opls_145     1   MOL    C3    3    -0.113000     12.01100 ; qtot -0.373  CA  
     4 opls_145     1   MOL    C4    4    -0.113000     12.01100 ; qtot -0.486  CA  
     5 opls_145     1   MOL    C5    5    -0.066300     12.01100 ; qtot -0.552  CA  
     6 opls_145     1   MOL    C6    6    -0.099300     12.01100 ; qtot -0.652  CA  
     7 opls_235     1   MOL    C7    7     0.642103     12.01100 ; qtot -0.009  C   
     8 opls_135     1   MOL    C8    8    -0.090100     12.01100 ; qtot -0.100  CT  
     9 opls_135     1   MOL    C9    9    -0.092100     12.01100 ; qtot -0.192  CT  
    10 opls_135     1   MOL   C10   10    -0.092100     12.01100 ; qtot -0.284  CT  
    11 opls_135     1   MOL   C11   11    -0.038100     12.01100 ; qtot -0.322  CT  
    12 opls_135     1   MOL   C12   12    -0.055400     12.01100 ; qtot -0.377  CT  
    13 opls_135     1   MOL   C13   13    -0.063700     12.01100 ; qtot -0.441  CT  
    14 opls_236     1   MOL    O1   14    -0.552000     15.99940 ; qtot -0.993  O   
    15 opls_154     1   MOL    O2   15    -0.606100     15.99940 ; qtot -1.599  OH  
    16 opls_146     1   MOL    H1   16     0.135000      1.00800 ; qtot -1.464  HA  
    17 opls_146     1   MOL    H2   17     0.135000      1.00800 ; qtot -1.329  HA  
    18 opls_146     1   MOL    H3   18     0.143000      1.00800 ; qtot -1.186  HA  
    19 opls_146     1   MOL    H4   19     0.143000      1.00800 ; qtot -1.043  HA  
    20 opls_140     1   MOL    H5   20     0.051033      1.00800 ; qtot -0.992  HC  
    21 opls_140     1   MOL    H6   21     0.051033      1.00800 ; qtot -0.941  HC  
    22 opls_140     1   MOL    H7   22     0.051033      1.00800 ; qtot -0.890  HC  
    23 opls_140     1   MOL    H8   23     0.035033      1.00800 ; qtot -0.855  HC  
    24 opls_140     1   MOL    H9   24     0.035033      1.00800 ; qtot -0.820  HC  
    25 opls_140     1   MOL   H10   25     0.035033      1.00800 ; qtot -0.785  HC  
    26 opls_140     1   MOL   H11   26     0.035033      1.00800 ; qtot -0.750  HC  
    27 opls_140     1   MOL   H12   27     0.035033      1.00800 ; qtot -0.715  HC  
    28 opls_140     1   MOL   H13   28     0.035033      1.00800 ; qtot -0.680  HC  
    29 opls_140     1   MOL   H14   29     0.049700      1.00800 ; qtot -0.630  HC  
    30 opls_140     1   MOL   H15   30     0.049700      1.00800 ; qtot -0.580  HC  
    31 opls_140     1   MOL   H16   31     0.085700      1.00800 ; qtot -0.495  HC  
    32 opls_140     1   MOL   H17   32     0.051700      1.00800 ; qtot -0.443  HC  
    33 opls_155     1   MOL   H18   33     0.443000      1.00800 ; qtot  0.000  HO  

[ bonds ]
;   ai     aj funct   r             k
     1      3   1 ;    1.3986e-01    2.9644e+05 ;     C1 - C3         CA - CA    
     1      5   1 ;    1.3986e-01    2.9644e+05 ;     C1 - C5         CA - CA    
     1     16   1 ;    1.0860e-01    3.0183e+05 ;     C1 - H1         CA - HA    
     2      4   1 ;    1.3986e-01    2.9644e+05 ;     C2 - C4         CA - CA    
     2      5   1 ;    1.3986e-01    2.9644e+05 ;     C2 - C5         CA - CA    
     2     17   1 ;    1.0860e-01    3.0183e+05 ;     C2 - H2         CA - HA    
     3      6   1 ;    1.3986e-01    2.9644e+05 ;     C3 - C6         CA - CA    
     3     18   1 ;    1.0860e-01    3.0183e+05 ;     C3 - H3         CA - HA    
     4      6   1 ;    1.3986e-01    2.9644e+05 ;     C4 - C6         CA - CA    
     4     19   1 ;    1.0860e-01    3.0183e+05 ;     C4 - H4         CA - HA    
     5     11   1 ;    1.5147e-01    2.0410e+05 ;     C5 - C11        CA - CT    
     6     12   1 ;    1.5147e-01    2.0410e+05 ;     C6 - C12        CA - CT    
     7     12   1 ;    1.5270e-01    1.9652e+05 ;     C7 - C12         C - CT    
     7     14   1 ;    1.2190e-01    4.9421e+05 ;     C7 - O1          C - O     
     7     15   1 ;    1.3556e-01    3.0064e+05 ;     C7 - O2          C - OH    
     8     12   1 ;    1.5354e-01    1.9154e+05 ;     C8 - C12        CT - CT    
     8     20   1 ;    1.0962e-01    2.8891e+05 ;     C8 - H5         CT - HC    
     8     21   1 ;    1.0962e-01    2.8891e+05 ;     C8 - H6         CT - HC    
     8     22   1 ;    1.0962e-01    2.8891e+05 ;     C8 - H7         CT - HC    
     9     13   1 ;    1.5354e-01    1.9154e+05 ;     C9 - C13        CT - CT    
     9     23   1 ;    1.0962e-01    2.8891e+05 ;     C9 - H8         CT - HC    
     9     24   1 ;    1.0962e-01    2.8891e+05 ;     C9 - H9         CT - HC    
     9     25   1 ;    1.0962e-01    2.8891e+05 ;     C9 - H10        CT - HC    
    10     13   1 ;    1.5354e-01    1.9154e+05 ;    C10 - C13        CT - CT    
    10     26   1 ;    1.0962e-01    2.8891e+05 ;    C10 - H11        CT - HC    
    10     27   1 ;    1.0962e-01    2.8891e+05 ;    C10 - H12        CT - HC    
    10     28   1 ;    1.0962e-01    2.8891e+05 ;    C10 - H13        CT - HC    
    11     13   1 ;    1.5354e-01    1.9154e+05 ;    C11 - C13        CT - CT    
    11     29   1 ;    1.0962e-01    2.8891e+05 ;    C11 - H14        CT - HC    
    11     30   1 ;    1.0962e-01    2.8891e+05 ;    C11 - H15        CT - HC    
    12     31   1 ;    1.0962e-01    2.8891e+05 ;    C12 - H16        CT - HC    
    13     32   1 ;    1.0962e-01    2.8891e+05 ;    C13 - H17        CT - HC    
    15     33   1 ;    9.7250e-02    4.4811e+05 ;     O2 - H18        OH - HO    

[ pairs ]
;   ai     aj    funct
     1      4      1 ;     C1 - C4    
     1     12      1 ;     C1 - C12   
     1     13      1 ;     C1 - C13   
     1     17      1 ;     C1 - H2    
     1     29      1 ;     C1 - H14   
     1     30      1 ;     C1 - H15   
     2      3      1 ;     C2 - C3    
     2     12      1 ;     C2 - C12   
     2     13      1 ;     C2 - C13   
     2     29      1 ;     C2 - H14   
     2     30      1 ;     C2 - H15   
     3      7      1 ;     C3 - C7    
     3      8      1 ;     C3 - C8    
     3     11      1 ;     C3 - C11   
     3     19      1 ;     C3 - H4    
     3     31      1 ;     C3 - H16   
     4      7      1 ;     C4 - C7    
     4      8      1 ;     C4 - C8    
     4     11      1 ;     C4 - C11   
     4     18      1 ;     C4 - H3    
     4     31      1 ;     C4 - H16   
     5      6      1 ;     C5 - C6    
     5      9      1 ;     C5 - C9    
     5     10      1 ;     C5 - C10   
     5     18      1 ;     C5 - H3    
     5     19      1 ;     C5 - H4    
     5     32      1 ;     C5 - H17   
     6     14      1 ;     C6 - O1    
     6     15      1 ;     C6 - O2    
     6     17      1 ;     C6 - H2    
     6     20      1 ;     C6 - H5    
     6     21      1 ;     C6 - H6    
     6     22      1 ;     C6 - H7    
     7     20      1 ;     C7 - H5    
     7     21      1 ;     C7 - H6    
     7     22      1 ;     C7 - H7    
     8     14      1 ;     C8 - O1    
     8     15      1 ;     C8 - O2    
     9     26      1 ;     C9 - H11   
     9     27      1 ;     C9 - H12   
     9     28      1 ;     C9 - H13   
     9     29      1 ;     C9 - H14   
     9     30      1 ;     C9 - H15   
    10     23      1 ;    C10 - H8    
    10     24      1 ;    C10 - H9    
    10     25      1 ;    C10 - H10   
    10     29      1 ;    C10 - H14   
    10     30      1 ;    C10 - H15   
    11     17      1 ;    C11 - H2    
    11     23      1 ;    C11 - H8    
    11     24      1 ;    C11 - H9    
    11     25      1 ;    C11 - H10   
    11     26      1 ;    C11 - H11   
    11     27      1 ;    C11 - H12   
    11     28      1 ;    C11 - H13   
    12     18      1 ;    C12 - H3    
    12     19      1 ;    C12 - H4    
    12     33      1 ;    C12 - H18   
    14     31      1 ;     O1 - H16   
    14     33      1 ;     O1 - H18   
    15     31      1 ;     O2 - H16   
    16      2      1 ;     H1 - C2    
    16      6      1 ;     H1 - C6    
    16     11      1 ;     H1 - C11   
    16     18      1 ;     H1 - H3    
    17     19      1 ;     H2 - H4    
    20     31      1 ;     H5 - H16   
    21     31      1 ;     H6 - H16   
    22     31      1 ;     H7 - H16   
    23     32      1 ;     H8 - H17   
    24     32      1 ;     H9 - H17   
    25     32      1 ;    H10 - H17   
    26     32      1 ;    H11 - H17   
    27     32      1 ;    H12 - H17   
    28     32      1 ;    H13 - H17   
    29     32      1 ;    H14 - H17   
    30     32      1 ;    H15 - H17   

[ angles ]
;   ai     aj     ak    funct   theta         cth
     1      3      6      1 ;    1.2002e+02    5.3279e+02 ;     C1 - C3   - C6       CA -   CA - CA  
     1      3     18      1 ;    1.1988e+02    3.7572e+02 ;     C1 - C3   - H3       CA -   CA - HA  
     1      5      2      1 ;    1.2002e+02    5.3279e+02 ;     C1 - C5   - C2       CA -   CA - CA  
     1      5     11      1 ;    1.2083e+02    5.0827e+02 ;     C1 - C5   - C11      CA -   CA - CT  
     2      4      6      1 ;    1.2002e+02    5.3279e+02 ;     C2 - C4   - C6       CA -   CA - CA  
     2      4     19      1 ;    1.1988e+02    3.7572e+02 ;     C2 - C4   - H4       CA -   CA - HA  
     2      5     11      1 ;    1.2083e+02    5.0827e+02 ;     C2 - C5   - C11      CA -   CA - CT  
     3      1      5      1 ;    1.2002e+02    5.3279e+02 ;     C3 - C1   - C5       CA -   CA - CA  
     3      1     16      1 ;    1.1988e+02    3.7572e+02 ;     C3 - C1   - H1       CA -   CA - HA  
     3      6      4      1 ;    1.2002e+02    5.3279e+02 ;     C3 - C6   - C4       CA -   CA - CA  
     3      6     12      1 ;    1.2083e+02    5.0827e+02 ;     C3 - C6   - C12      CA -   CA - CT  
     4      2      5      1 ;    1.2002e+02    5.3279e+02 ;     C4 - C2   - C5       CA -   CA - CA  
     4      2     17      1 ;    1.1988e+02    3.7572e+02 ;     C4 - C2   - H2       CA -   CA - HA  
     4      6     12      1 ;    1.2083e+02    5.0827e+02 ;     C4 - C6   - C12      CA -   CA - CT  
     5      1     16      1 ;    1.1988e+02    3.7572e+02 ;     C5 - C1   - H1       CA -   CA - HA  
     5      2     17      1 ;    1.1988e+02    3.7572e+02 ;     C5 - C2   - H2       CA -   CA - HA  
     5     11     13      1 ;    1.1242e+02    5.0484e+02 ;     C5 - C11  - C13      CA -   CT - CT  
     5     11     29      1 ;    1.1063e+02    3.6493e+02 ;     C5 - C11  - H14      CA -   CT - HC  
     5     11     30      1 ;    1.1063e+02    3.6493e+02 ;     C5 - C11  - H15      CA -   CT - HC  
     6      3     18      1 ;    1.1988e+02    3.7572e+02 ;     C6 - C3   - H3       CA -   CA - HA  
     6      4     19      1 ;    1.1988e+02    3.7572e+02 ;     C6 - C4   - H4       CA -   CA - HA  
     6     12      7      1 ;    1.1116e+02    5.0911e+02 ;     C6 - C12  - C7       CA -   CT - C   
     6     12      8      1 ;    1.1242e+02    5.0484e+02 ;     C6 - C12  - C8       CA -   CT - CT  
     6     12     31      1 ;    1.1063e+02    3.6493e+02 ;     C6 - C12  - H16      CA -   CT - HC  
     7     12      8      1 ;    1.1143e+02    5.0509e+02 ;     C7 - C12  - C8        C -   CT - CT  
     7     12     31      1 ;    1.0895e+02    3.6510e+02 ;     C7 - C12  - H16       C -   CT - HC  
     7     15     33      1 ;    1.0654e+02    5.7287e+02 ;     C7 - O2   - H18       C -   OH - HO  
     8     12     31      1 ;    1.0968e+02    3.6208e+02 ;     C8 - C12  - H16      CT -   CT - HC  
     9     13     10      1 ;    1.1263e+02    5.0099e+02 ;     C9 - C13  - C10      CT -   CT - CT  
     9     13     11      1 ;    1.1263e+02    5.0099e+02 ;     C9 - C13  - C11      CT -   CT - CT  
     9     13     32      1 ;    1.0968e+02    3.6208e+02 ;     C9 - C13  - H17      CT -   CT - HC  
    10     13     11      1 ;    1.1263e+02    5.0099e+02 ;    C10 - C13  - C11      CT -   CT - CT  
    10     13     32      1 ;    1.0968e+02    3.6208e+02 ;    C10 - C13  - H17      CT -   CT - HC  
    11     13     32      1 ;    1.0968e+02    3.6208e+02 ;    C11 - C13  - H17      CT -   CT - HC  
    12      7     14      1 ;    1.2290e+02    6.3973e+02 ;    C12 - C7   - O1       CT -    C - O   
    12      7     15      1 ;    1.1274e+02    6.4785e+02 ;    C12 - C7   - O2       CT -    C - OH  
    12      8     20      1 ;    1.0968e+02    3.6208e+02 ;    C12 - C8   - H5       CT -   CT - HC  
    12      8     21      1 ;    1.0968e+02    3.6208e+02 ;    C12 - C8   - H6       CT -   CT - HC  
    12      8     22      1 ;    1.0968e+02    3.6208e+02 ;    C12 - C8   - H7       CT -   CT - HC  
    13      9     23      1 ;    1.0968e+02    3.6208e+02 ;    C13 - C9   - H8       CT -   CT - HC  
    13      9     24      1 ;    1.0968e+02    3.6208e+02 ;    C13 - C9   - H9       CT -   CT - HC  
    13      9     25      1 ;    1.0968e+02    3.6208e+02 ;    C13 - C9   - H10      CT -   CT - HC  
    13     10     26      1 ;    1.0968e+02    3.6208e+02 ;    C13 - C10  - H11      CT -   CT - HC  
    13     10     27      1 ;    1.0968e+02    3.6208e+02 ;    C13 - C10  - H12      CT -   CT - HC  
    13     10     28      1 ;    1.0968e+02    3.6208e+02 ;    C13 - C10  - H13      CT -   CT - HC  
    13     11     29      1 ;    1.0968e+02    3.6208e+02 ;    C13 - C11  - H14      CT -   CT - HC  
    13     11     30      1 ;    1.0968e+02    3.6208e+02 ;    C13 - C11  - H15      CT -   CT - HC  
    14      7     15      1 ;    1.2209e+02    8.5379e+02 ;     O1 - C7   - O2        O -    C - OH  
    20      8     21      1 ;    1.0773e+02    2.9957e+02 ;     H5 - C8   - H6       HC -   CT - HC  
    20      8     22      1 ;    1.0773e+02    2.9957e+02 ;     H5 - C8   - H7       HC -   CT - HC  
    21      8     22      1 ;    1.0773e+02    2.9957e+02 ;     H6 - C8   - H7       HC -   CT - HC  
    23      9     24      1 ;    1.0773e+02    2.9957e+02 ;     H8 - C9   - H9       HC -   CT - HC  
    23      9     25      1 ;    1.0773e+02    2.9957e+02 ;     H8 - C9   - H10      HC -   CT - HC  
    24      9     25      1 ;    1.0773e+02    2.9957e+02 ;     H9 - C9   - H10      HC -   CT - HC  
    26     10     27      1 ;    1.0773e+02    2.9957e+02 ;    H11 - C10  - H12      HC -   CT - HC  
    26     10     28      1 ;    1.0773e+02    2.9957e+02 ;    H11 - C10  - H13      HC -   CT - HC  
    27     10     28      1 ;    1.0773e+02    2.9957e+02 ;    H12 - C10  - H13      HC -   CT - HC  
    29     11     30      1 ;    1.0773e+02    2.9957e+02 ;    H14 - C11  - H15      HC -   CT - HC  

[ dihedrals ] ; propers
; for gromacs 4.5 or higher, using funct 9
;    i      j      k      l   func   phase     kd      pn
     1      3      6      4      9 ;   180.00  15.16700   2 ;     C1-    C3-    C6-    C4
     1      3      6     12      9 ;   180.00  15.16700   2 ;     C1-    C3-    C6-   C12
     1      5      2      4      9 ;   180.00  15.16700   2 ;     C1-    C5-    C2-    C4
     1      5      2     17      9 ;   180.00  15.16700   2 ;     C1-    C5-    C2-    H2
     1      5     11     13      9 ;   180.00   1.00416   2 ;     C1-    C5-   C11-   C13
     1      5     11     29      9 ;     0.00   0.00000   0 ;     C1-    C5-   C11-   H14
     1      5     11     30      9 ;     0.00   0.00000   0 ;     C1-    C5-   C11-   H15
     2      4      6      3      9 ;   180.00  15.16700   2 ;     C2-    C4-    C6-    C3
     2      4      6     12      9 ;   180.00  15.16700   2 ;     C2-    C4-    C6-   C12
     2      5     11     13      9 ;   180.00   1.00416   2 ;     C2-    C5-   C11-   C13
     2      5     11     29      9 ;     0.00   0.00000   0 ;     C2-    C5-   C11-   H14
     2      5     11     30      9 ;     0.00   0.00000   0 ;     C2-    C5-   C11-   H15
     3      1      5      2      9 ;   180.00  15.16700   2 ;     C3-    C1-    C5-    C2
     3      1      5     11      9 ;   180.00  15.16700   2 ;     C3-    C1-    C5-   C11
     3      6      4     19      9 ;   180.00  15.16700   2 ;     C3-    C6-    C4-    H4
     3      6     12      7      9 ;     0.00   0.00000   0 ;     C3-    C6-   C12-    C7
     3      6     12      8      9 ;   180.00   1.00416   2 ;     C3-    C6-   C12-    C8
     3      6     12     31      9 ;     0.00   0.00000   0 ;     C3-    C6-   C12-   H16
     3      6     12     31      9 ;     0.00   0.00000   0 ;     C3-    C6-   C12-   H16
     4      2      5     11      9 ;   180.00  15.16700   2 ;     C4-    C2-    C5-   C11
     4      6      3     18      9 ;   180.00  15.16700   2 ;     C4-    C6-    C3-    H3
     4      6     12      7      9 ;     0.00   0.00000   0 ;     C4-    C6-   C12-    C7
     4      6     12      8      9 ;   180.00   1.00416   2 ;     C4-    C6-   C12-    C8
     4      6     12     31      9 ;     0.00   0.00000   0 ;     C4-    C6-   C12-   H16
     4      6     12     31      9 ;     0.00   0.00000   0 ;     C4-    C6-   C12-   H16
     5      1      3      6      9 ;   180.00  15.16700   2 ;     C5-    C1-    C3-    C6
     5      1      3     18      9 ;   180.00  15.16700   2 ;     C5-    C1-    C3-    H3
     5      2      4      6      9 ;   180.00  15.16700   2 ;     C5-    C2-    C4-    C6
     5      2      4     19      9 ;   180.00  15.16700   2 ;     C5-    C2-    C4-    H4
     5     11     13      9      9 ;     0.00   0.65084   3 ;     C5-   C11-   C13-    C9
     5     11     13     10      9 ;     0.00   0.65084   3 ;     C5-   C11-   C13-   C10
     5     11     13     32      9 ;     0.00   0.65084   3 ;     C5-   C11-   C13-   H17
     6      4      2     17      9 ;   180.00  15.16700   2 ;     C6-    C4-    C2-    H2
     6     12      7     14      9 ;   180.00   0.00000   2 ;     C6-   C12-    C7-    O1
     6     12      7     15      9 ;   180.00   0.00000   2 ;     C6-   C12-    C7-    O2
     6     12      8     20      9 ;     0.00   0.65084   3 ;     C6-   C12-    C8-    H5
     6     12      8     21      9 ;     0.00   0.65084   3 ;     C6-   C12-    C8-    H6
     6     12      8     22      9 ;     0.00   0.65084   3 ;     C6-   C12-    C8-    H7
     7     12      8     20      9 ;     0.00   0.65084   3 ;     C7-   C12-    C8-    H5
     7     12      8     21      9 ;     0.00   0.65084   3 ;     C7-   C12-    C8-    H6
     7     12      8     22      9 ;     0.00   0.65084   3 ;     C7-   C12-    C8-    H7
     8     12      7     14      9 ;     0.00   2.84512   1 ;     C8-   C12-    C7-    O1
     8     12      7     14      9 ;   180.00   0.83680   2 ;     C8-   C12-    C7-    O1
     8     12      7     14      9 ;   180.00   1.84096   3 ;     C8-   C12-    C7-    O1
     8     12      7     15      9 ;   180.00   0.00000   2 ;     C8-   C12-    C7-    O2
     9     13     10     26      9 ;     0.00   0.54392   3 ;     C9-   C13-   C10-   H11
     9     13     10     27      9 ;     0.00   0.54392   3 ;     C9-   C13-   C10-   H12
     9     13     10     28      9 ;     0.00   0.54392   3 ;     C9-   C13-   C10-   H13
     9     13     11     29      9 ;     0.00   0.54392   3 ;     C9-   C13-   C11-   H14
     9     13     11     30      9 ;     0.00   0.54392   3 ;     C9-   C13-   C11-   H15
    10     13      9     23      9 ;     0.00   0.54392   3 ;    C10-   C13-    C9-    H8
    10     13      9     24      9 ;     0.00   0.54392   3 ;    C10-   C13-    C9-    H9
    10     13      9     25      9 ;     0.00   0.54392   3 ;    C10-   C13-    C9-   H10
    10     13     11     29      9 ;     0.00   0.54392   3 ;    C10-   C13-   C11-   H14
    10     13     11     30      9 ;     0.00   0.54392   3 ;    C10-   C13-   C11-   H15
    11      5      2     17      9 ;   180.00  15.16700   2 ;    C11-    C5-    C2-    H2
    11     13      9     23      9 ;     0.00   0.54392   3 ;    C11-   C13-    C9-    H8
    11     13      9     24      9 ;     0.00   0.54392   3 ;    C11-   C13-    C9-    H9
    11     13      9     25      9 ;     0.00   0.54392   3 ;    C11-   C13-    C9-   H10
    11     13     10     26      9 ;     0.00   0.54392   3 ;    C11-   C13-   C10-   H11
    11     13     10     27      9 ;     0.00   0.54392   3 ;    C11-   C13-   C10-   H12
    11     13     10     28      9 ;     0.00   0.54392   3 ;    C11-   C13-   C10-   H13
    12      6      3     18      9 ;   180.00  15.16700   2 ;    C12-    C6-    C3-    H3
    12      6      4     19      9 ;   180.00  15.16700   2 ;    C12-    C6-    C4-    H4
    12      7     15     33      9 ;   180.00   7.53120   2 ;    C12-    C7-    O2-   H18
    14      7     12     31      9 ;     0.00  16.86152   1 ;     O1-    C7-   C12-   H16
    14      7     12     31      9 ;   180.00  15.31344   2 ;     O1-    C7-   C12-   H16
    14      7     15     33      9 ;     0.00   7.94960   1 ;     O1-    C7-    O2-   H18
    14      7     15     33      9 ;   180.00   9.62320   2 ;     O1-    C7-    O2-   H18
    15      7     12     31      9 ;   180.00   0.00000   2 ;     O2-    C7-   C12-   H16
    16      1      3      6      9 ;   180.00  15.16700   2 ;     H1-    C1-    C3-    C6
    16      1      3     18      9 ;   180.00  15.16700   2 ;     H1-    C1-    C3-    H3
    16      1      5      2      9 ;   180.00  15.16700   2 ;     H1-    C1-    C5-    C2
    16      1      5     11      9 ;   180.00  15.16700   2 ;     H1-    C1-    C5-   C11
    17      2      4     19      9 ;   180.00  15.16700   2 ;     H2-    C2-    C4-    H4
    20      8     12     31      9 ;     0.00   0.50208   3 ;     H5-    C8-   C12-   H16
    21      8     12     31      9 ;     0.00   0.50208   3 ;     H6-    C8-   C12-   H16
    22      8     12     31      9 ;     0.00   0.50208   3 ;     H7-    C8-   C12-   H16
    23      9     13     32      9 ;     0.00   0.50208   3 ;     H8-    C9-   C13-   H17
    24      9     13     32      9 ;     0.00   0.50208   3 ;     H9-    C9-   C13-   H17
    25      9     13     32      9 ;     0.00   0.50208   3 ;    H10-    C9-   C13-   H17
    26     10     13     32      9 ;     0.00   0.50208   3 ;    H11-   C10-   C13-   H17
    27     10     13     32      9 ;     0.00   0.50208   3 ;    H12-   C10-   C13-   H17
    28     10     13     32      9 ;     0.00   0.50208   3 ;    H13-   C10-   C13-   H17
    29     11     13     32      9 ;     0.00   0.50208   3 ;    H14-   C11-   C13-   H17
    30     11     13     32      9 ;     0.00   0.50208   3 ;    H15-   C11-   C13-   H17

[ dihedrals ] ; impropers
; treated as propers in GROMACS to use correct AMBER analytical function
;    i      j      k      l   func   phase     kd      pn
     1      2      5     11      4 ;   180.00   4.60240   2 ;     C1-    C2-    C5-   C11
     1      6      3     18      4 ;   180.00   4.60240   2 ;     C1-    C6-    C3-    H3
     2      6      4     19      4 ;   180.00   4.60240   2 ;     C2-    C6-    C4-    H4
     4      5      2     17      4 ;   180.00   4.60240   2 ;     C4-    C5-    C2-    H2
    12      3      6      4      4 ;   180.00   4.60240   2 ;    C12-    C3-    C6-    C4
    12     14      7     15      4 ;   180.00   4.60240   2 ;    C12-    O1-    C7-    O2
    16      1      5      3      4 ;   180.00   4.60240   2 ;     H1-    C1-    C5-    C3
