; mobley_2078467_GMX_OPLS.top created by acpype (v: 2023.10.27) on Wed May 20 23:41:42 2026

; Include forcefield parameters
#include "ffoplsaa.itp"

; Include mobley_2078467_GMX.itp topology
#include "mobley_2078467_GMX.itp"

; Ligand position restraints
#ifdef POSRES_LIG
#include "posre_mobley_2078467.itp"
#endif

[ system ]
 mobley_2078467

[ molecules ]
; Compound        nmols
 mobley_2078467   1     
