; mobley_1417007_GMX.top created by acpype (v: 2023.10.27) on Wed May 20 23:56:18 2026

[ defaults ]
; nbfunc        comb-rule       gen-pairs       fudgeLJ fudgeQQ
1               2               yes             0.5     0.8333333333

; Include mobley_1417007_GMX.itp topology
#include "mobley_1417007_GMX.itp"

; Ligand position restraints
#ifdef POSRES_LIG
#include "posre_mobley_1417007.itp"
#endif

[ system ]
mobley_1417007 in water

[ molecules ]
; Compound        nmols
 mobley_1417007   1     
SOL              4025
