CUP08014_AM1BCC_v1_0
    24
   1.6310000  -1.0360000  -0.8220000   0.8150000  -0.6630000   0.1850000
   3.6380000  -3.6700000   1.1700000   2.5080000  -2.7600000   2.9560000
   2.7250000  -2.0730000  -0.6740000   0.9400000  -1.1830000   1.6020000
   2.5190000  -2.8380000   0.6170000   2.2800000  -1.8710000   1.7680000
   3.2750000  -6.2380000   3.6090000   3.4080000  -3.7240000   2.5340000
   4.5120000  -4.2130000   0.5170000   2.0440000  -2.5830000   4.0700000
   4.2770000  -4.7120000   3.5960000   4.0240000  -7.4070000   4.7460000
   1.6010000  -5.9260000   4.1510000   3.2170000  -6.9950000   1.9910000
   1.5010000  -0.5950000  -1.8080000   0.0290000   0.0650000  -0.0040000
   2.6930000  -2.7650000  -1.5230000   3.7040000  -1.5790000  -0.6980000
   0.8640000  -0.3480000   2.3080000   0.1080000  -1.8630000   1.8180000
   1.6620000  -3.5210000   0.4980000   3.0750000  -1.1100000   1.8030000
