; mobley_1417007_GMX.itp created by acpype (v: 2023.10.27) on Wed May 20 23:56:18 2026

[ atomtypes ]
;name   bond_type     mass     charge   ptype   sigma         epsilon       Amb
 c2       c2          0.00000  0.00000   A     3.31521e-01   4.13379e-01 ; 1.86  0.0988
 c        c           0.00000  0.00000   A     3.31521e-01   4.13379e-01 ; 1.86  0.0988
 c6       c6          0.00000  0.00000   A     3.39771e-01   4.51035e-01 ; 1.91  0.1078
 c5       c5          0.00000  0.00000   A     3.39771e-01   4.51035e-01 ; 1.91  0.1078
 c3       c3          0.00000  0.00000   A     3.39771e-01   4.51035e-01 ; 1.91  0.1078
 n        n           0.00000  0.00000   A     3.18086e-01   6.84502e-01 ; 1.79  0.1636
 o        o           0.00000  0.00000   A     3.04812e-01   6.12119e-01 ; 1.71  0.1463
 ss       ss          0.00000  0.00000   A     3.53241e-01   1.18156e+00 ; 1.98  0.2824
 cl       cl          0.00000  0.00000   A     3.46595e-01   1.10374e+00 ; 1.95  0.2638
 ha       ha          0.00000  0.00000   A     2.62548e-01   6.73624e-02 ; 1.47  0.0161
 hc       hc          0.00000  0.00000   A     2.60018e-01   8.70272e-02 ; 1.46  0.0208

[ moleculetype ]
;name            nrexcl
 mobley_1417007   3

[ atoms ]
;   nr  type  resi  res  atom  cgnr     charge      mass       ; qtot   bond_type
     1   c2     1   MOL    C1    1    -0.171700     12.01000 ; qtot -0.172
     2   c2     1   MOL    C2    2    -0.171700     12.01000 ; qtot -0.343
     3    c     1   MOL    C3    3     0.705500     12.01000 ; qtot 0.362
     4    c     1   MOL    C4    4     0.705500     12.01000 ; qtot 1.068
     5   c6     1   MOL    C5    5    -0.031700     12.01000 ; qtot 1.036
     6   c6     1   MOL    C6    6    -0.031700     12.01000 ; qtot 1.004
     7   c5     1   MOL    C7    7    -0.141200     12.01000 ; qtot 0.863
     8   c5     1   MOL    C8    8    -0.141200     12.01000 ; qtot 0.722
     9   c3     1   MOL    C9    9     0.236300     12.01000 ; qtot 0.958
    10    n     1   MOL    N1   10    -0.465700     14.01000 ; qtot 0.492
    11    o     1   MOL    O1   11    -0.527000     16.00000 ; qtot -0.035
    12    o     1   MOL    O2   12    -0.527000     16.00000 ; qtot -0.562
    13   ss     1   MOL    S1   13     0.095600     32.06000 ; qtot -0.466
    14   cl     1   MOL   CL1   14    -0.094400     35.45000 ; qtot -0.560
    15   cl     1   MOL   CL2   15    -0.094400     35.45000 ; qtot -0.655
    16   cl     1   MOL   CL3   16    -0.094400     35.45000 ; qtot -0.749
    17   ha     1   MOL    H1   17     0.135000      1.00800 ; qtot -0.614
    18   ha     1   MOL    H2   18     0.135000      1.00800 ; qtot -0.479
    19   hc     1   MOL    H3   19     0.070450      1.00800 ; qtot -0.409
    20   hc     1   MOL    H4   20     0.070450      1.00800 ; qtot -0.338
    21   hc     1   MOL    H5   21     0.070450      1.00800 ; qtot -0.268
    22   hc     1   MOL    H6   22     0.070450      1.00800 ; qtot -0.197
    23   hc     1   MOL    H7   23     0.098700      1.00800 ; qtot -0.099
    24   hc     1   MOL    H8   24     0.098700      1.00800 ; qtot -0.000

[ bonds ]
;   ai     aj funct   r             k
     1      2   1    1.3379e-01    3.6484e+05 ;     C1 - C2    
     1      5   1    1.5133e-01    2.0498e+05 ;     C1 - C5    
     1     17   1    1.0882e-01    2.9898e+05 ;     C1 - H1    
     2      6   1    1.5133e-01    2.0498e+05 ;     C2 - C6    
     2     18   1    1.0882e-01    2.9898e+05 ;     C2 - H2    
     3      7   1    1.5346e-01    1.9200e+05 ;     C3 - C7    
     3     10   1    1.3967e-01    2.6565e+05 ;     C3 - N1    
     3     11   1    1.2190e-01    4.9421e+05 ;     C3 - O1    
     4      8   1    1.5346e-01    1.9200e+05 ;     C4 - C8    
     4     10   1    1.3967e-01    2.6565e+05 ;     C4 - N1    
     4     12   1    1.2190e-01    4.9421e+05 ;     C4 - O2    
     5      7   1    1.5389e-01    1.8951e+05 ;     C5 - C7    
     5     19   1    1.0979e-01    2.8681e+05 ;     C5 - H3    
     5     20   1    1.0979e-01    2.8681e+05 ;     C5 - H4    
     6      8   1    1.5389e-01    1.8951e+05 ;     C6 - C8    
     6     21   1    1.0979e-01    2.8681e+05 ;     C6 - H5    
     6     22   1    1.0979e-01    2.8681e+05 ;     C6 - H6    
     7      8   1    1.5483e-01    1.8418e+05 ;     C7 - C8    
     7     23   1    1.0954e-01    2.8989e+05 ;     C7 - H7    
     8     24   1    1.0954e-01    2.8989e+05 ;     C8 - H8    
     9     13   1    1.8407e-01    1.5459e+05 ;     C9 - S1    
     9     14   1    1.8092e-01    1.3724e+05 ;     C9 - CL1   
     9     15   1    1.8092e-01    1.3724e+05 ;     C9 - CL2   
     9     16   1    1.8092e-01    1.3724e+05 ;     C9 - CL3   
    10     13   1    1.7330e-01    2.2481e+05 ;     N1 - S1    

[ pairs ]
;   ai     aj    funct
     1      3      1 ;     C1 - C3    
     1      8      1 ;     C1 - C8    
     1     21      1 ;     C1 - H5    
     1     22      1 ;     C1 - H6    
     1     23      1 ;     C1 - H7    
     2      4      1 ;     C2 - C4    
     2      7      1 ;     C2 - C7    
     2     19      1 ;     C2 - H3    
     2     20      1 ;     C2 - H4    
     2     24      1 ;     C2 - H8    
     3      6      1 ;     C3 - C6    
     3      9      1 ;     C3 - C9    
     3     12      1 ;     C3 - O2    
     3     19      1 ;     C3 - H3    
     3     20      1 ;     C3 - H4    
     3     24      1 ;     C3 - H8    
     4      5      1 ;     C4 - C5    
     4      9      1 ;     C4 - C9    
     4     11      1 ;     C4 - O1    
     4     21      1 ;     C4 - H5    
     4     22      1 ;     C4 - H6    
     4     23      1 ;     C4 - H7    
     5      6      1 ;     C5 - C6    
     5     10      1 ;     C5 - N1    
     5     11      1 ;     C5 - O1    
     5     18      1 ;     C5 - H2    
     5     24      1 ;     C5 - H8    
     6     10      1 ;     C6 - N1    
     6     12      1 ;     C6 - O2    
     6     23      1 ;     C6 - H7    
     7     12      1 ;     C7 - O2    
     7     13      1 ;     C7 - S1    
     7     21      1 ;     C7 - H5    
     7     22      1 ;     C7 - H6    
     8     11      1 ;     C8 - O1    
     8     13      1 ;     C8 - S1    
     8     18      1 ;     C8 - H2    
     8     19      1 ;     C8 - H3    
     8     20      1 ;     C8 - H4    
    10     14      1 ;     N1 - CL1   
    10     15      1 ;     N1 - CL2   
    10     16      1 ;     N1 - CL3   
    10     23      1 ;     N1 - H7    
    10     24      1 ;     N1 - H8    
    11     13      1 ;     O1 - S1    
    11     23      1 ;     O1 - H7    
    12     13      1 ;     O2 - S1    
    12     24      1 ;     O2 - H8    
    17      6      1 ;     H1 - C6    
    17      7      1 ;     H1 - C7    
    17     18      1 ;     H1 - H2    
    17     19      1 ;     H1 - H3    
    17     20      1 ;     H1 - H4    
    18     21      1 ;     H2 - H5    
    18     22      1 ;     H2 - H6    
    19     23      1 ;     H3 - H7    
    20     23      1 ;     H4 - H7    
    21     24      1 ;     H5 - H8    
    22     24      1 ;     H6 - H8    
    23     24      1 ;     H7 - H8    

[ angles ]
;   ai     aj     ak    funct   theta         cth
     1      2      6      1    1.2302e+02    5.1246e+02 ;     C1 - C2     - C6    
     1      2     18      1    1.2039e+02    3.8802e+02 ;     C1 - C2     - H2    
     1      5      7      1    1.1159e+02    5.0635e+02 ;     C1 - C5     - C7    
     1      5     19      1    1.0931e+02    3.6736e+02 ;     C1 - C5     - H3    
     1      5     20      1    1.0931e+02    3.6736e+02 ;     C1 - C5     - H4    
     2      1      5      1    1.2302e+02    5.1246e+02 ;     C2 - C1     - C5    
     2      1     17      1    1.2039e+02    3.8802e+02 ;     C2 - C1     - H1    
     2      6      8      1    1.1159e+02    5.0635e+02 ;     C2 - C6     - C8    
     2      6     21      1    1.0931e+02    3.6736e+02 ;     C2 - C6     - H5    
     2      6     22      1    1.0931e+02    3.6736e+02 ;     C2 - C6     - H6    
     3      7      5      1    1.1288e+02    4.9999e+02 ;     C3 - C7     - C5    
     3      7      8      1    1.0786e+02    5.0995e+02 ;     C3 - C7     - C8    
     3      7     23      1    1.0864e+02    3.6401e+02 ;     C3 - C7     - H7    
     3     10      4      1    1.2521e+02    6.4559e+02 ;     C3 - N1     - C4    
     3     10     13      1    1.2277e+02    6.6049e+02 ;     C3 - N1     - S1    
     4      8      6      1    1.1288e+02    4.9999e+02 ;     C4 - C8     - C6    
     4      8      7      1    1.0786e+02    5.0995e+02 ;     C4 - C8     - C7    
     4      8     24      1    1.0864e+02    3.6401e+02 ;     C4 - C8     - H8    
     4     10     13      1    1.2277e+02    6.6049e+02 ;     C4 - N1     - S1    
     5      1     17      1    1.1657e+02    3.5606e+02 ;     C5 - C1     - H1    
     5      7      8      1    1.1375e+02    4.9589e+02 ;     C5 - C7     - C8    
     5      7     23      1    1.0642e+02    3.6685e+02 ;     C5 - C7     - H7    
     6      2     18      1    1.1657e+02    3.5606e+02 ;     C6 - C2     - H2    
     6      8      7      1    1.1375e+02    4.9589e+02 ;     C6 - C8     - C7    
     6      8     24      1    1.0642e+02    3.6685e+02 ;     C6 - C8     - H8    
     7      3     10      1    1.0744e+02    5.6794e+02 ;     C7 - C3     - N1    
     7      3     11      1    1.2567e+02    6.3019e+02 ;     C7 - C3     - O1    
     7      5     19      1    1.0934e+02    3.6183e+02 ;     C7 - C5     - H3    
     7      5     20      1    1.0934e+02    3.6183e+02 ;     C7 - C5     - H4    
     7      8     24      1    1.1117e+02    3.5690e+02 ;     C7 - C8     - H8    
     8      4     10      1    1.0744e+02    5.6794e+02 ;     C8 - C4     - N1    
     8      4     12      1    1.2567e+02    6.3019e+02 ;     C8 - C4     - O2    
     8      6     21      1    1.0934e+02    3.6183e+02 ;     C8 - C6     - H5    
     8      6     22      1    1.0934e+02    3.6183e+02 ;     C8 - C6     - H6    
     8      7     23      1    1.1117e+02    3.5690e+02 ;     C8 - C7     - H7    
     9     13     10      1    1.0276e+02    8.3354e+02 ;     C9 - S1     - N1    
    10      3     11      1    1.2257e+02    7.2534e+02 ;     N1 - C3     - O1    
    10      4     12      1    1.2257e+02    7.2534e+02 ;     N1 - C4     - O2    
    13      9     14      1    1.1289e+02    5.6794e+02 ;     S1 - C9     - CL1   
    13      9     15      1    1.1289e+02    5.6794e+02 ;     S1 - C9     - CL2   
    13      9     16      1    1.1289e+02    5.6794e+02 ;     S1 - C9     - CL3   
    14      9     15      1    1.0934e+02    5.8225e+02 ;    CL1 - C9     - CL2   
    14      9     16      1    1.0934e+02    5.8225e+02 ;    CL1 - C9     - CL3   
    15      9     16      1    1.0934e+02    5.8225e+02 ;    CL2 - C9     - CL3   
    19      5     20      1    1.0662e+02    3.0066e+02 ;     H3 - C5     - H4    
    21      6     22      1    1.0662e+02    3.0066e+02 ;     H5 - C6     - H6    

[ dihedrals ] ; propers
; for gromacs 4.5 or higher, using funct 9
;    i      j      k      l   func   phase     kd      pn
     1      2      6      8      9     0.00   0.00000   0 ;     C1-    C2-    C6-    C8
     1      2      6     21      9   180.00   1.08784   3 ;     C1-    C2-    C6-    H5
     1      2      6     22      9   180.00   1.08784   3 ;     C1-    C2-    C6-    H6
     1      5      7      3      9     0.00   0.65084   3 ;     C1-    C5-    C7-    C3
     1      5      7      8      9     0.00   0.65084   3 ;     C1-    C5-    C7-    C8
     1      5      7     23      9     0.00   0.65084   3 ;     C1-    C5-    C7-    H7
     2      1      5      7      9     0.00   0.00000   0 ;     C2-    C1-    C5-    C7
     2      1      5     19      9   180.00   1.08784   3 ;     C2-    C1-    C5-    H3
     2      1      5     20      9   180.00   1.08784   3 ;     C2-    C1-    C5-    H4
     2      6      8      4      9     0.00   0.65084   3 ;     C2-    C6-    C8-    C4
     2      6      8      7      9     0.00   0.65084   3 ;     C2-    C6-    C8-    C7
     2      6      8     24      9     0.00   0.65084   3 ;     C2-    C6-    C8-    H8
     3      7      5     19      9     0.00   0.65084   3 ;     C3-    C7-    C5-    H3
     3      7      5     20      9     0.00   0.65084   3 ;     C3-    C7-    C5-    H4
     3      7      8      4      9     0.00   1.54808   2 ;     C3-    C7-    C8-    C4
     3      7      8      4      9     0.00   5.02080   1 ;     C3-    C7-    C8-    C4
     3      7      8      4      9   180.00   0.92978   3 ;     C3-    C7-    C8-    C4
     3      7      8      6      9     0.00   0.00000   0 ;     C3-    C7-    C8-    C6
     3      7      8      6      9     0.00   0.16736   2 ;     C3-    C7-    C8-    C6
     3      7      8      6      9   180.00   1.92464   1 ;     C3-    C7-    C8-    C6
     3      7      8     24      9     0.00   0.65084   3 ;     C3-    C7-    C8-    H8
     3     10      4      8      9   180.00   0.00000   2 ;     C3-    N1-    C4-    C8
     3     10      4      8      9   180.00   7.19648   1 ;     C3-    N1-    C4-    C8
     3     10      4     12      9   180.00  10.46000   2 ;     C3-    N1-    C4-    O2
     3     10     13      9      9     0.00   2.09200   2 ;     C3-    N1-    S1-    C9
     4      8      6     21      9     0.00   0.65084   3 ;     C4-    C8-    C6-    H5
     4      8      6     22      9     0.00   0.65084   3 ;     C4-    C8-    C6-    H6
     4      8      7      5      9     0.00   0.00000   0 ;     C4-    C8-    C7-    C5
     4      8      7      5      9     0.00   0.16736   2 ;     C4-    C8-    C7-    C5
     4      8      7      5      9   180.00   1.92464   1 ;     C4-    C8-    C7-    C5
     4      8      7     23      9     0.00   0.65084   3 ;     C4-    C8-    C7-    H7
     4     10      3      7      9   180.00   0.00000   2 ;     C4-    N1-    C3-    C7
     4     10      3      7      9   180.00   7.19648   1 ;     C4-    N1-    C3-    C7
     4     10      3     11      9   180.00  10.46000   2 ;     C4-    N1-    C3-    O1
     4     10     13      9      9     0.00   2.09200   2 ;     C4-    N1-    S1-    C9
     5      1      2      6      9     0.00   0.62760   1 ;     C5-    C1-    C2-    C6
     5      1      2      6      9   180.00   5.56472   3 ;     C5-    C1-    C2-    C6
     5      1      2      6      9   180.00  24.18352   2 ;     C5-    C1-    C2-    C6
     5      1      2     18      9   180.00  27.82360   2 ;     C5-    C1-    C2-    H2
     5      7      3     10      9   180.00   0.00000   4 ;     C5-    C7-    C3-    N1
     5      7      3     10      9   180.00   2.97064   2 ;     C5-    C7-    C3-    N1
     5      7      3     11      9     0.00   2.84512   1 ;     C5-    C7-    C3-    O1
     5      7      3     11      9   180.00   0.83680   2 ;     C5-    C7-    C3-    O1
     5      7      3     11      9   180.00   1.84096   3 ;     C5-    C7-    C3-    O1
     5      7      8      6      9     0.00   2.17568   3 ;     C5-    C7-    C8-    C6
     5      7      8     24      9     0.00   0.54392   3 ;     C5-    C7-    C8-    H8
     6      8      4     10      9   180.00   0.00000   4 ;     C6-    C8-    C4-    N1
     6      8      4     10      9   180.00   2.97064   2 ;     C6-    C8-    C4-    N1
     6      8      4     12      9     0.00   2.84512   1 ;     C6-    C8-    C4-    O2
     6      8      4     12      9   180.00   0.83680   2 ;     C6-    C8-    C4-    O2
     6      8      4     12      9   180.00   1.84096   3 ;     C6-    C8-    C4-    O2
     6      8      7     23      9     0.00   0.54392   3 ;     C6-    C8-    C7-    H7
     7      3     10     13      9   180.00  10.46000   2 ;     C7-    C3-    N1-    S1
     7      8      4     10      9   180.00   0.00000   4 ;     C7-    C8-    C4-    N1
     7      8      4     10      9   180.00   2.97064   2 ;     C7-    C8-    C4-    N1
     7      8      4     12      9     0.00   2.84512   1 ;     C7-    C8-    C4-    O2
     7      8      4     12      9   180.00   0.83680   2 ;     C7-    C8-    C4-    O2
     7      8      4     12      9   180.00   1.84096   3 ;     C7-    C8-    C4-    O2
     7      8      6     21      9     0.00   0.54392   3 ;     C7-    C8-    C6-    H5
     7      8      6     22      9     0.00   0.54392   3 ;     C7-    C8-    C6-    H6
     8      4     10     13      9   180.00  10.46000   2 ;     C8-    C4-    N1-    S1
     8      6      2     18      9     0.00   0.00000   0 ;     C8-    C6-    C2-    H2
     8      7      3     10      9   180.00   0.00000   4 ;     C8-    C7-    C3-    N1
     8      7      3     10      9   180.00   2.97064   2 ;     C8-    C7-    C3-    N1
     8      7      3     11      9     0.00   2.84512   1 ;     C8-    C7-    C3-    O1
     8      7      3     11      9   180.00   0.83680   2 ;     C8-    C7-    C3-    O1
     8      7      3     11      9   180.00   1.84096   3 ;     C8-    C7-    C3-    O1
     8      7      5     19      9     0.00   0.54392   3 ;     C8-    C7-    C5-    H3
     8      7      5     20      9     0.00   0.54392   3 ;     C8-    C7-    C5-    H4
    10      3      7     23      9   180.00   0.00000   2 ;     N1-    C3-    C7-    H7
    10      4      8     24      9   180.00   0.00000   2 ;     N1-    C4-    C8-    H8
    10     13      9     14      9     0.00   1.39467   3 ;     N1-    S1-    C9-   CL1
    10     13      9     15      9     0.00   1.39467   3 ;     N1-    S1-    C9-   CL2
    10     13      9     16      9     0.00   1.39467   3 ;     N1-    S1-    C9-   CL3
    11      3      7     23      9     0.00  16.86152   1 ;     O1-    C3-    C7-    H7
    11      3      7     23      9   180.00  15.31344   2 ;     O1-    C3-    C7-    H7
    11      3     10     13      9   180.00  10.46000   2 ;     O1-    C3-    N1-    S1
    12      4      8     24      9     0.00  16.86152   1 ;     O2-    C4-    C8-    H8
    12      4      8     24      9   180.00  15.31344   2 ;     O2-    C4-    C8-    H8
    12      4     10     13      9   180.00  10.46000   2 ;     O2-    C4-    N1-    S1
    17      1      2      6      9   180.00  27.82360   2 ;     H1-    C1-    C2-    C6
    17      1      2     18      9   180.00  27.82360   2 ;     H1-    C1-    C2-    H2
    17      1      5      7      9     0.00   0.00000   0 ;     H1-    C1-    C5-    C7
    17      1      5     19      9     0.00   0.00000   0 ;     H1-    C1-    C5-    H3
    17      1      5     20      9     0.00   0.00000   0 ;     H1-    C1-    C5-    H4
    18      2      6     21      9     0.00   0.00000   0 ;     H2-    C2-    C6-    H5
    18      2      6     22      9     0.00   0.00000   0 ;     H2-    C2-    C6-    H6
    19      5      7     23      9     0.00   0.50208   3 ;     H3-    C5-    C7-    H7
    20      5      7     23      9     0.00   0.50208   3 ;     H4-    C5-    C7-    H7
    21      6      8     24      9     0.00   0.50208   3 ;     H5-    C6-    C8-    H8
    22      6      8     24      9     0.00   0.50208   3 ;     H6-    C6-    C8-    H8
    23      7      8     24      9     0.00   0.50208   3 ;     H7-    C7-    C8-    H8

[ dihedrals ] ; impropers
; treated as propers in GROMACS to use correct AMBER analytical function
;    i      j      k      l   func   phase     kd      pn
     1      6      2     18      4   180.00   4.60240   2 ;     C1-    C6-    C2-    H2
     3      4     10     13      4   180.00   4.60240   2 ;     C3-    C4-    N1-    S1
     7     10      3     11      4   180.00  43.93200   2 ;     C7-    N1-    C3-    O1
     8     10      4     12      4   180.00  43.93200   2 ;     C8-    N1-    C4-    O2
    17      1      5      2      4   180.00   4.60240   2 ;     H1-    C1-    C5-    C2
