; mobley_1417007_GMX_OPLS.top created by acpype (v: 2023.10.27) on Wed May 20 23:56:18 2026

; Include forcefield parameters
#include "ffoplsaa.itp"

; Include mobley_1417007_GMX.itp topology
#include "mobley_1417007_GMX.itp"

; Ligand position restraints
#ifdef POSRES_LIG
#include "posre_mobley_1417007.itp"
#endif

[ system ]
 mobley_1417007

[ molecules ]
; Compound        nmols
 mobley_1417007   1     
