%VERSION  VERSION_STAMP = V0001.000  DATE = 05/20/26  23:56:22                  
%FLAG TITLE                                                                     
%FORMAT(20a4)                                                                   
CUP08014_AM1BCC_v1_0                                                            
%FLAG POINTERS                                                                  
%FORMAT(10I8)                                                                   
      24       8       8      17      20      26      40      57       0       0
     133       1      17      26      57      13      21      30      11       0
       0       0       0       0       0       0       0       0      24       0
       0
%FLAG ATOM_NAME                                                                 
%FORMAT(20a4)                                                                   
C1  C2  C3  C4  C5  C6  C7  C8  C9  N1  O1  O2  S1  Cl1 Cl2 Cl3 H1  H2  H3  H4  
H5  H6  H7  H8  
%FLAG CHARGE                                                                    
%FORMAT(5E16.8)                                                                 
 -3.12876891E+00 -3.12876891E+00  1.28740550E+01  1.28740550E+01 -5.77646910E-01
 -5.77646910E-01 -2.57298876E+00 -2.57298876E+00  4.30592949E+00 -8.48612511E+00
 -9.60315210E+00 -9.60315210E+00  1.74205188E+00 -1.72018512E+00 -1.72018512E+00
 -1.72018512E+00  2.46001050E+00  2.46001050E+00  1.28376103E+00  1.28376103E+00
  1.28376103E+00  1.28376103E+00  1.79854101E+00  1.79854101E+00
%FLAG ATOMIC_NUMBER                                                             
%FORMAT(10I8)                                                                   
       6       6       6       6       6       6       6       6       6       7
       8       8      16      17      17      17       1       1       1       1
       1       1       1       1
%FLAG MASS                                                                      
%FORMAT(5E16.8)                                                                 
  1.20100000E+01  1.20100000E+01  1.20100000E+01  1.20100000E+01  1.20100000E+01
  1.20100000E+01  1.20100000E+01  1.20100000E+01  1.20100000E+01  1.40100000E+01
  1.60000000E+01  1.60000000E+01  3.20600000E+01  3.54500000E+01  3.54500000E+01
  3.54500000E+01  1.00800000E+00  1.00800000E+00  1.00800000E+00  1.00800000E+00
  1.00800000E+00  1.00800000E+00  1.00800000E+00  1.00800000E+00
%FLAG ATOM_TYPE_INDEX                                                           
%FORMAT(10I8)                                                                   
       1       1       1       1       2       2       2       2       2       3
       4       4       5       6       6       6       7       7       8       8
       8       8       8       8
%FLAG NUMBER_EXCLUDED_ATOMS                                                     
%FORMAT(10I8)                                                                   
      13      12      14      13      11      10      12      11       5       8
       2       2       3       2       1       1       3       2       2       1
       2       1       1       1
%FLAG NONBONDED_PARM_INDEX                                                      
%FORMAT(10I8)                                                                   
       1       2       4       7      11      16      22      29       2       3
       5       8      12      17      23      30       4       5       6       9
      13      18      24      31       7       8       9      10      14      19
      25      32      11      12      13      14      15      20      26      33
      16      17      18      19      20      21      27      34      22      23
      24      25      26      27      28      35      29      30      31      32
      33      34      35      36
%FLAG RESIDUE_LABEL                                                             
%FORMAT(20a4)                                                                   
MOL 
%FLAG RESIDUE_POINTER                                                           
%FORMAT(10I8)                                                                   
       1
%FLAG BOND_FORCE_CONSTANT                                                       
%FORMAT(5E16.8)                                                                 
  4.36000000E+02  2.44960000E+02  3.57290000E+02  2.29450000E+02  3.17460000E+02
  5.90600000E+02  2.26470000E+02  3.42750000E+02  2.20100000E+02  3.46430000E+02
  1.84740000E+02  1.64000000E+02  2.68650000E+02
%FLAG BOND_EQUIL_VALUE                                                          
%FORMAT(5E16.8)                                                                 
  1.33790000E+00  1.51330000E+00  1.08820000E+00  1.53460000E+00  1.39670000E+00
  1.21900000E+00  1.53890000E+00  1.09790000E+00  1.54830000E+00  1.09540000E+00
  1.84070000E+00  1.80920000E+00  1.73300000E+00
%FLAG ANGLE_FORCE_CONSTANT                                                      
%FORMAT(5E16.8)                                                                 
  6.12400000E+01  4.63700000E+01  6.05100000E+01  4.39000000E+01  5.97500000E+01
  6.09400000E+01  4.35000000E+01  7.71500000E+01  7.89300000E+01  4.25500000E+01
  5.92600000E+01  4.38400000E+01  6.78700000E+01  7.53100000E+01  4.32400000E+01
  4.26500000E+01  9.96100000E+01  8.66800000E+01  6.78700000E+01  6.95800000E+01
  3.59300000E+01
%FLAG ANGLE_EQUIL_VALUE                                                         
%FORMAT(5E16.8)                                                                 
  2.14710497E+00  2.10120279E+00  1.94761375E+00  1.90782022E+00  1.97012850E+00
  1.88251294E+00  1.89612651E+00  2.18532769E+00  2.14274164E+00  2.03453118E+00
  1.98531288E+00  1.85738019E+00  1.87518255E+00  2.19335621E+00  1.90834382E+00
  1.94028336E+00  1.79350111E+00  2.13925098E+00  1.97030304E+00  1.90834382E+00
  1.86087085E+00
%FLAG DIHEDRAL_FORCE_CONSTANT                                                   
%FORMAT(5E16.8)                                                                 
  0.00000000E+00  2.60000000E-01  1.55555556E-01  1.20000000E+00  3.70000000E-01
  2.22222222E-01  4.60000000E-01  4.00000000E-02  0.00000000E+00  1.72000000E+00
  0.00000000E+00  2.50000000E+00  5.00000000E-01  1.50000000E-01  5.78000000E+00
  1.33000000E+00  6.65000000E+00  7.10000000E-01  0.00000000E+00  6.80000000E-01
  2.00000000E-01  4.40000000E-01  5.20000000E-01  1.30000000E-01  3.33333333E-01
  4.03000000E+00  3.66000000E+00  1.20000000E-01  1.10000000E+00  1.05000000E+01
%FLAG DIHEDRAL_PERIODICITY                                                      
%FORMAT(5E16.8)                                                                 
  2.00000000E+00  3.00000000E+00  3.00000000E+00  1.00000000E+00  2.00000000E+00
  3.00000000E+00  1.00000000E+00  2.00000000E+00  3.00000000E+00  1.00000000E+00
  2.00000000E+00  2.00000000E+00  2.00000000E+00  1.00000000E+00  2.00000000E+00
  3.00000000E+00  2.00000000E+00  2.00000000E+00  4.00000000E+00  1.00000000E+00
  2.00000000E+00  3.00000000E+00  3.00000000E+00  3.00000000E+00  3.00000000E+00
  1.00000000E+00  2.00000000E+00  3.00000000E+00  2.00000000E+00  2.00000000E+00
%FLAG DIHEDRAL_PHASE                                                            
%FORMAT(5E16.8)                                                                 
  0.00000000E+00  3.14159400E+00  0.00000000E+00  0.00000000E+00  0.00000000E+00
  3.14159400E+00  3.14159400E+00  0.00000000E+00  0.00000000E+00  3.14159400E+00
  3.14159400E+00  3.14159400E+00  0.00000000E+00  0.00000000E+00  3.14159400E+00
  3.14159400E+00  3.14159400E+00  3.14159400E+00  3.14159400E+00  0.00000000E+00
  3.14159400E+00  3.14159400E+00  0.00000000E+00  0.00000000E+00  0.00000000E+00
  0.00000000E+00  3.14159400E+00  0.00000000E+00  3.14159400E+00  3.14159400E+00
%FLAG SCEE_SCALE_FACTOR                                                         
%FORMAT(5E16.8)                                                                 
  1.20000000E+00  1.20000000E+00  1.20000000E+00  1.20000000E+00  1.20000000E+00
  1.20000000E+00  1.20000000E+00  1.20000000E+00  1.20000000E+00  1.20000000E+00
  1.20000000E+00  1.20000000E+00  1.20000000E+00  1.20000000E+00  1.20000000E+00
  1.20000000E+00  1.20000000E+00  1.20000000E+00  1.20000000E+00  1.20000000E+00
  1.20000000E+00  1.20000000E+00  1.20000000E+00  1.20000000E+00  1.20000000E+00
  1.20000000E+00  1.20000000E+00  1.20000000E+00  0.00000000E+00  0.00000000E+00
%FLAG SCNB_SCALE_FACTOR                                                         
%FORMAT(5E16.8)                                                                 
  2.00000000E+00  2.00000000E+00  2.00000000E+00  2.00000000E+00  2.00000000E+00
  2.00000000E+00  2.00000000E+00  2.00000000E+00  2.00000000E+00  2.00000000E+00
  2.00000000E+00  2.00000000E+00  2.00000000E+00  2.00000000E+00  2.00000000E+00
  2.00000000E+00  2.00000000E+00  2.00000000E+00  2.00000000E+00  2.00000000E+00
  2.00000000E+00  2.00000000E+00  2.00000000E+00  2.00000000E+00  2.00000000E+00
  2.00000000E+00  2.00000000E+00  2.00000000E+00  0.00000000E+00  0.00000000E+00
%FLAG SOLTY                                                                     
%FORMAT(5E16.8)                                                                 
  0.00000000E+00  0.00000000E+00  0.00000000E+00  0.00000000E+00  0.00000000E+00
  0.00000000E+00  0.00000000E+00  0.00000000E+00  0.00000000E+00  0.00000000E+00
  0.00000000E+00
%FLAG LENNARD_JONES_ACOEF                                                       
%FORMAT(5E16.8)                                                                 
  6.96551276E+05  8.43969952E+05  1.02073671E+06  7.01106848E+05  8.52084164E+05
  7.02078680E+05  5.17507491E+05  6.30925504E+05  5.15491878E+05  3.76435470E+05
  1.73376823E+06  2.09089895E+06  1.75889445E+06  1.30884564E+06  4.26366419E+06
  1.49062160E+06  1.80018612E+06  1.50866868E+06  1.11993097E+06  3.67899711E+06
  3.17107030E+06  7.52549148E+04  9.27554496E+04  7.35931098E+04  5.27277400E+04
  1.95762765E+05  1.66104821E+05  6.90855956E+03  8.12662403E+04  1.00235148E+05
  7.93773615E+04  5.68021765E+04  2.11783234E+05  1.79601155E+05  7.41026906E+03
  7.94617769E+03
%FLAG LENNARD_JONES_BCOEF                                                       
%FORMAT(5E16.8)                                                                 
  5.24668528E+02  5.90251928E+02  6.63431737E+02  5.97113873E+02  6.72777963E+02
  6.77820248E+02  4.98871431E+02  5.62969425E+02  5.64804067E+02  4.69350655E+02
  1.07629402E+03  1.20800124E+03  1.22973599E+03  1.03157656E+03  2.19459223E+03
  9.81118883E+02  1.10195051E+03  1.11967364E+03  9.38113535E+02  2.00414708E+03
  1.82923847E+03  1.09570372E+02  1.24325688E+02  1.22913863E+02  1.01173582E+02
  2.29782888E+02  2.08087638E+02  2.10929191E+01  1.21392023E+02  1.37787728E+02
  1.36094315E+02  1.11953944E+02  2.54804909E+02  2.30684859E+02  2.32899892E+01
  2.57122925E+01
%FLAG BONDS_INC_HYDROGEN                                                        
%FORMAT(10I8)                                                                   
       0      48       3       3      51       3      12      54       8      12
      57       8      15      60       8      15      63       8      18      66
      10      21      69      10
%FLAG BONDS_WITHOUT_HYDROGEN                                                    
%FORMAT(10I8)                                                                   
       0       3       1       0      12       2       3      15       2       6
      18       4       6      27       5       6      30       6       9      21
       4       9      27       5       9      33       6      12      18       7
      15      21       7      18      21       9      24      36      11      24
      39      12      24      42      12      24      45      12      27      36
      13
%FLAG ANGLES_INC_HYDROGEN                                                       
%FORMAT(10I8)                                                                   
       0       3      51       2       0      12      54       4       0      12
      57       4       3       0      48       2       3      15      60       4
       3      15      63       4       6      18      66       7       9      21
      69       7      12       0      48      10      12      18      66      12
      15       3      51      10      15      21      69      12      18      12
      54      15      18      12      57      15      18      21      69      16
      21      15      60      15      21      15      63      15      21      18
      66      16      54      12      57      21      60      15      63      21
%FLAG ANGLES_WITHOUT_HYDROGEN                                                   
%FORMAT(10I8)                                                                   
       0       3      15       1       0      12      18       3       3       0
      12       1       3      15      21       3       6      18      12       5
       6      18      21       6       6      27       9       8       6      27
      36       9       9      21      15       5       9      21      18       6
       9      27      36       9      12      18      21      11      15      21
      18      11      18       6      27      13      18       6      30      14
      21       9      27      13      21       9      33      14      24      36
      27      17      27       6      30      18      27       9      33      18
      36      24      39      19      36      24      42      19      36      24
      45      19      39      24      42      20      39      24      45      20
      42      24      45      20
%FLAG DIHEDRALS_INC_HYDROGEN                                                    
%FORMAT(10I8)                                                                   
       0       3      15      60       2       0       3      15      63       2
       0      12      18      66       3       3       0      12      54       2
       3       0      12      57       2       3      15      21      69       3
       6      18      12      54       3       6      18      12      57       3
       6      18      21      69       3       9      21      15      60       3
       9      21      15      63       3       9      21      18      66       3
      12       0       3      51      17      12      18      21      69      24
      48       0       3      15      17      15      21      18      66      24
      48       0      12      18       1      18      21      15      60      24
      18      21      15      63      24      21      15       3      51       1
      21      18      12      54      24      21      18      12      57      24
      27       6      18      66      11      27       9      21      69      11
      30       6      18      66      26      30       6     -18      66      27
      33       9      21      69      26      33       9     -21      69      27
      48       0       3      51      17      48       0      12      54       1
      48       0      12      57       1      51       3      15      60       1
      51       3      15      63       1      54      12      18      66      28
      57      12      18      66      28      60      15      21      69      28
      63      15      21      69      28      66      18      21      69      28
      48       0     -12      -3      29       0      15      -3     -51      29
%FLAG DIHEDRALS_WITHOUT_HYDROGEN                                                
%FORMAT(10I8)                                                                   
       0       3      15      21       1       0      12      18       6       3
       0      12     -18      21       3       3       0      12      18       1
       3      15      21       9       3       3      15     -21      18       3
       6      18     -21       9       4       6      18     -21       9       5
       6      18     -21       9       6       6      18      21      15       7
       6      18     -21      15       8       6      18     -21      15       9
       6      27      -9      21      10       6      27      -9      21      11
       6      27       9      33      12       6      27      36      24      13
       9      21      18      12       7       9      21     -18      12       8
       9      21     -18      12       9       9      27      -6      18      10
       9      27      -6      18      11       9      27       6      30      12
       9      27      36      24      13      12       0       3      15      14
      12       0      -3      15      15      12       0      -3      15      16
      12      18       6      27      18      12      18      -6      27      19
      12      18       6      30      20      12      18      -6      30      21
      12      18      -6      30      22      12      18     -21      15      23
      15      21       9      27      18      15      21      -9      27      19
      15      21       9      33      20      15      21      -9      33      21
      15      21      -9      33      22      18       6      27      36      12
      18      21      -9      27      18      18      21      -9      27      19
      18      21       9      33      20      18      21      -9      33      21
      18      21      -9      33      22      21       9      27      36      12
      21      18      -6      27      18      21      18      -6      27      19
      21      18       6      30      20      21      18      -6      30      21
      21      18      -6      30      22      27      36      24      39      25
      27      36      24      42      25      27      36      24      45      25
      30       6      27      36      12      33       9      27      36      12
      18      27      -6     -30      30      21      27      -9     -33      30
       6       9     -27     -36      29
%FLAG EXCLUDED_ATOMS_LIST                                                       
%FORMAT(10I8)                                                                   
       2       3       5       6       7       8      17      18      19      20
      21      22      23       4       5       6       7       8      17      18
      19      20      21      22      24       4       5       6       7       8
       9      10      11      12      13      19      20      23      24       5
       6       7       8       9      10      11      12      13      21      22
      23      24       6       7       8      10      11      17      18      19
      20      23      24       7       8      10      12      17      18      21
      22      23      24       8      10      11      12      13      17      19
      20      21      22      23      24      10      11      12      13      18
      19      20      21      22      23      24      10      13      14      15
      16      11      12      13      14      15      16      23      24      13
      23      13      24      14      15      16      15      16      16       0
      18      19      20      21      22      20      23      23      22      24
      24      24       0
%FLAG HBOND_ACOEF                                                               
%FORMAT(5E16.8)                                                                 

%FLAG HBOND_BCOEF                                                               
%FORMAT(5E16.8)                                                                 

%FLAG HBCUT                                                                     
%FORMAT(5E16.8)                                                                 

%FLAG AMBER_ATOM_TYPE                                                           
%FORMAT(20a4)                                                                   
c2  c2  c   c   c6  c6  c5  c5  c3  n   o   o   ss  cl  cl  cl  ha  ha  hc  hc  
hc  hc  hc  hc  
%FLAG TREE_CHAIN_CLASSIFICATION                                                 
%FORMAT(20a4)                                                                   
BLA BLA BLA BLA BLA BLA BLA BLA BLA BLA BLA BLA BLA BLA BLA BLA BLA BLA BLA BLA 
BLA BLA BLA BLA 
%FLAG JOIN_ARRAY                                                                
%FORMAT(10I8)                                                                   
       0       0       0       0       0       0       0       0       0       0
       0       0       0       0       0       0       0       0       0       0
       0       0       0       0
%FLAG IROTAT                                                                    
%FORMAT(10I8)                                                                   
       0       0       0       0       0       0       0       0       0       0
       0       0       0       0       0       0       0       0       0       0
       0       0       0       0
%FLAG RADIUS_SET                                                                
%FORMAT(1a80)                                                                   
modified Bondi radii (mbondi)                                                   
%FLAG RADII                                                                     
%FORMAT(5E16.8)                                                                 
  1.70000000E+00  1.70000000E+00  1.70000000E+00  1.70000000E+00  1.70000000E+00
  1.70000000E+00  1.70000000E+00  1.70000000E+00  1.70000000E+00  1.55000000E+00
  1.50000000E+00  1.50000000E+00  1.80000000E+00  1.70000000E+00  1.70000000E+00
  1.70000000E+00  1.30000000E+00  1.30000000E+00  1.30000000E+00  1.30000000E+00
  1.30000000E+00  1.30000000E+00  1.30000000E+00  1.30000000E+00
%FLAG SCREEN                                                                    
%FORMAT(5E16.8)                                                                 
  7.20000000E-01  7.20000000E-01  7.20000000E-01  7.20000000E-01  7.20000000E-01
  7.20000000E-01  7.20000000E-01  7.20000000E-01  7.20000000E-01  7.90000000E-01
  8.50000000E-01  8.50000000E-01  9.60000000E-01  8.00000000E-01  8.00000000E-01
  8.00000000E-01  8.50000000E-01  8.50000000E-01  8.50000000E-01  8.50000000E-01
  8.50000000E-01  8.50000000E-01  8.50000000E-01  8.50000000E-01
%FLAG IPOL                                                                      
%FORMAT(1I8)                                                                    
       0
