; mobley_1417007_GMX_OPLS.itp created by acpype (v: 2023.10.27) on Wed May 20 23:56:18 2026

; For OPLS atomtypes manual fine tuning
; AC_at:OPLS_at:OPLScode: Possible_Alternatives (see ffoplsaa.atp and ffoplsaanb.itp)
; c2:CR:opls_509: ['510']
; c:C:opls_235: ['271']
; c6:x:opls_x: []
; c5:x:opls_x: []
; c3:CT:opls_135: ['136', '137', '149', '157', '158', '206', '209', '210', '223B', '224B', '245', '246', '274', '283', '284', '285', '292', '292B', '293B', '296', '307', '308', '505']
; n:N:opls_237: ['238', '239']
; o:O:opls_236: ['272']
; ss:S:opls_202: []
; cl:x:opls_x: []
; ha:HA:opls_146: []
; hc:HC:opls_140: []

[ moleculetype ]
;name            nrexcl
 mobley_1417007   3

[ atoms ]
;   nr  type  resi  res  atom  cgnr     charge      mass       ; qtot   bond_type
     1 opls_509     1   MOL    C1    1    -0.171700     12.01100 ; qtot -0.172  CR  
     2 opls_509     1   MOL    C2    2    -0.171700     12.01100 ; qtot -0.343  CR  
     3 opls_235     1   MOL    C3    3     0.705500     12.01100 ; qtot  0.362  C   
     4 opls_235     1   MOL    C4    4     0.705500     12.01100 ; qtot  1.068  C   
     5 opls_x     1   MOL    C5    5    -0.031700      0.00000 ; qtot  1.036  x   
     6 opls_x     1   MOL    C6    6    -0.031700      0.00000 ; qtot  1.004  x   
     7 opls_x     1   MOL    C7    7    -0.141200      0.00000 ; qtot  0.863  x   
     8 opls_x     1   MOL    C8    8    -0.141200      0.00000 ; qtot  0.722  x   
     9 opls_135     1   MOL    C9    9     0.236300     12.01100 ; qtot  0.958  CT  
    10 opls_237     1   MOL    N1   10    -0.465700     14.00670 ; qtot  0.492  N   
    11 opls_236     1   MOL    O1   11    -0.527000     15.99940 ; qtot -0.035  O   
    12 opls_236     1   MOL    O2   12    -0.527000     15.99940 ; qtot -0.562  O   
    13 opls_202     1   MOL    S1   13     0.095600     32.06000 ; qtot -0.466  S   
    14 opls_x     1   MOL   CL1   14    -0.094400      0.00000 ; qtot -0.560  x   
    15 opls_x     1   MOL   CL2   15    -0.094400      0.00000 ; qtot -0.655  x   
    16 opls_x     1   MOL   CL3   16    -0.094400      0.00000 ; qtot -0.749  x   
    17 opls_146     1   MOL    H1   17     0.135000      1.00800 ; qtot -0.614  HA  
    18 opls_146     1   MOL    H2   18     0.135000      1.00800 ; qtot -0.479  HA  
    19 opls_140     1   MOL    H3   19     0.070450      1.00800 ; qtot -0.409  HC  
    20 opls_140     1   MOL    H4   20     0.070450      1.00800 ; qtot -0.338  HC  
    21 opls_140     1   MOL    H5   21     0.070450      1.00800 ; qtot -0.268  HC  
    22 opls_140     1   MOL    H6   22     0.070450      1.00800 ; qtot -0.197  HC  
    23 opls_140     1   MOL    H7   23     0.098700      1.00800 ; qtot -0.099  HC  
    24 opls_140     1   MOL    H8   24     0.098700      1.00800 ; qtot -0.000  HC  

[ bonds ]
;   ai     aj funct   r             k
     1      2   1 ;    1.3379e-01    3.6484e+05 ;     C1 - C2         CR - CR    
     1      5   1 ;    1.5133e-01    2.0498e+05 ;     C1 - C5         CR - x     
     1     17   1 ;    1.0882e-01    2.9898e+05 ;     C1 - H1         CR - HA    
     2      6   1 ;    1.5133e-01    2.0498e+05 ;     C2 - C6         CR - x     
     2     18   1 ;    1.0882e-01    2.9898e+05 ;     C2 - H2         CR - HA    
     3      7   1 ;    1.5346e-01    1.9200e+05 ;     C3 - C7          C - x     
     3     10   1 ;    1.3967e-01    2.6565e+05 ;     C3 - N1          C - N     
     3     11   1 ;    1.2190e-01    4.9421e+05 ;     C3 - O1          C - O     
     4      8   1 ;    1.5346e-01    1.9200e+05 ;     C4 - C8          C - x     
     4     10   1 ;    1.3967e-01    2.6565e+05 ;     C4 - N1          C - N     
     4     12   1 ;    1.2190e-01    4.9421e+05 ;     C4 - O2          C - O     
     5      7   1 ;    1.5389e-01    1.8951e+05 ;     C5 - C7          x - x     
     5     19   1 ;    1.0979e-01    2.8681e+05 ;     C5 - H3          x - HC    
     5     20   1 ;    1.0979e-01    2.8681e+05 ;     C5 - H4          x - HC    
     6      8   1 ;    1.5389e-01    1.8951e+05 ;     C6 - C8          x - x     
     6     21   1 ;    1.0979e-01    2.8681e+05 ;     C6 - H5          x - HC    
     6     22   1 ;    1.0979e-01    2.8681e+05 ;     C6 - H6          x - HC    
     7      8   1 ;    1.5483e-01    1.8418e+05 ;     C7 - C8          x - x     
     7     23   1 ;    1.0954e-01    2.8989e+05 ;     C7 - H7          x - HC    
     8     24   1 ;    1.0954e-01    2.8989e+05 ;     C8 - H8          x - HC    
     9     13   1 ;    1.8407e-01    1.5459e+05 ;     C9 - S1         CT - S     
     9     14   1 ;    1.8092e-01    1.3724e+05 ;     C9 - CL1        CT - x     
     9     15   1 ;    1.8092e-01    1.3724e+05 ;     C9 - CL2        CT - x     
     9     16   1 ;    1.8092e-01    1.3724e+05 ;     C9 - CL3        CT - x     
    10     13   1 ;    1.7330e-01    2.2481e+05 ;     N1 - S1          N - S     

[ pairs ]
;   ai     aj    funct
     1      3      1 ;     C1 - C3    
     1      8      1 ;     C1 - C8    
     1     21      1 ;     C1 - H5    
     1     22      1 ;     C1 - H6    
     1     23      1 ;     C1 - H7    
     2      4      1 ;     C2 - C4    
     2      7      1 ;     C2 - C7    
     2     19      1 ;     C2 - H3    
     2     20      1 ;     C2 - H4    
     2     24      1 ;     C2 - H8    
     3      6      1 ;     C3 - C6    
     3      9      1 ;     C3 - C9    
     3     12      1 ;     C3 - O2    
     3     19      1 ;     C3 - H3    
     3     20      1 ;     C3 - H4    
     3     24      1 ;     C3 - H8    
     4      5      1 ;     C4 - C5    
     4      9      1 ;     C4 - C9    
     4     11      1 ;     C4 - O1    
     4     21      1 ;     C4 - H5    
     4     22      1 ;     C4 - H6    
     4     23      1 ;     C4 - H7    
     5      6      1 ;     C5 - C6    
     5     10      1 ;     C5 - N1    
     5     11      1 ;     C5 - O1    
     5     18      1 ;     C5 - H2    
     5     24      1 ;     C5 - H8    
     6     10      1 ;     C6 - N1    
     6     12      1 ;     C6 - O2    
     6     23      1 ;     C6 - H7    
     7     12      1 ;     C7 - O2    
     7     13      1 ;     C7 - S1    
     7     21      1 ;     C7 - H5    
     7     22      1 ;     C7 - H6    
     8     11      1 ;     C8 - O1    
     8     13      1 ;     C8 - S1    
     8     18      1 ;     C8 - H2    
     8     19      1 ;     C8 - H3    
     8     20      1 ;     C8 - H4    
    10     14      1 ;     N1 - CL1   
    10     15      1 ;     N1 - CL2   
    10     16      1 ;     N1 - CL3   
    10     23      1 ;     N1 - H7    
    10     24      1 ;     N1 - H8    
    11     13      1 ;     O1 - S1    
    11     23      1 ;     O1 - H7    
    12     13      1 ;     O2 - S1    
    12     24      1 ;     O2 - H8    
    17      6      1 ;     H1 - C6    
    17      7      1 ;     H1 - C7    
    17     18      1 ;     H1 - H2    
    17     19      1 ;     H1 - H3    
    17     20      1 ;     H1 - H4    
    18     21      1 ;     H2 - H5    
    18     22      1 ;     H2 - H6    
    19     23      1 ;     H3 - H7    
    20     23      1 ;     H4 - H7    
    21     24      1 ;     H5 - H8    
    22     24      1 ;     H6 - H8    
    23     24      1 ;     H7 - H8    

[ angles ]
;   ai     aj     ak    funct   theta         cth
     1      2      6      1 ;    1.2302e+02    5.1246e+02 ;     C1 - C2   - C6       CR -   CR - x   
     1      2     18      1 ;    1.2039e+02    3.8802e+02 ;     C1 - C2   - H2       CR -   CR - HA  
     1      5      7      1 ;    1.1159e+02    5.0635e+02 ;     C1 - C5   - C7       CR -    x - x   
     1      5     19      1 ;    1.0931e+02    3.6736e+02 ;     C1 - C5   - H3       CR -    x - HC  
     1      5     20      1 ;    1.0931e+02    3.6736e+02 ;     C1 - C5   - H4       CR -    x - HC  
     2      1      5      1 ;    1.2302e+02    5.1246e+02 ;     C2 - C1   - C5       CR -   CR - x   
     2      1     17      1 ;    1.2039e+02    3.8802e+02 ;     C2 - C1   - H1       CR -   CR - HA  
     2      6      8      1 ;    1.1159e+02    5.0635e+02 ;     C2 - C6   - C8       CR -    x - x   
     2      6     21      1 ;    1.0931e+02    3.6736e+02 ;     C2 - C6   - H5       CR -    x - HC  
     2      6     22      1 ;    1.0931e+02    3.6736e+02 ;     C2 - C6   - H6       CR -    x - HC  
     3      7      5      1 ;    1.1288e+02    4.9999e+02 ;     C3 - C7   - C5        C -    x - x   
     3      7      8      1 ;    1.0786e+02    5.0995e+02 ;     C3 - C7   - C8        C -    x - x   
     3      7     23      1 ;    1.0864e+02    3.6401e+02 ;     C3 - C7   - H7        C -    x - HC  
     3     10      4      1 ;    1.2521e+02    6.4559e+02 ;     C3 - N1   - C4        C -    N - C   
     3     10     13      1 ;    1.2277e+02    6.6049e+02 ;     C3 - N1   - S1        C -    N - S   
     4      8      6      1 ;    1.1288e+02    4.9999e+02 ;     C4 - C8   - C6        C -    x - x   
     4      8      7      1 ;    1.0786e+02    5.0995e+02 ;     C4 - C8   - C7        C -    x - x   
     4      8     24      1 ;    1.0864e+02    3.6401e+02 ;     C4 - C8   - H8        C -    x - HC  
     4     10     13      1 ;    1.2277e+02    6.6049e+02 ;     C4 - N1   - S1        C -    N - S   
     5      1     17      1 ;    1.1657e+02    3.5606e+02 ;     C5 - C1   - H1        x -   CR - HA  
     5      7      8      1 ;    1.1375e+02    4.9589e+02 ;     C5 - C7   - C8        x -    x - x   
     5      7     23      1 ;    1.0642e+02    3.6685e+02 ;     C5 - C7   - H7        x -    x - HC  
     6      2     18      1 ;    1.1657e+02    3.5606e+02 ;     C6 - C2   - H2        x -   CR - HA  
     6      8      7      1 ;    1.1375e+02    4.9589e+02 ;     C6 - C8   - C7        x -    x - x   
     6      8     24      1 ;    1.0642e+02    3.6685e+02 ;     C6 - C8   - H8        x -    x - HC  
     7      3     10      1 ;    1.0744e+02    5.6794e+02 ;     C7 - C3   - N1        x -    C - N   
     7      3     11      1 ;    1.2567e+02    6.3019e+02 ;     C7 - C3   - O1        x -    C - O   
     7      5     19      1 ;    1.0934e+02    3.6183e+02 ;     C7 - C5   - H3        x -    x - HC  
     7      5     20      1 ;    1.0934e+02    3.6183e+02 ;     C7 - C5   - H4        x -    x - HC  
     7      8     24      1 ;    1.1117e+02    3.5690e+02 ;     C7 - C8   - H8        x -    x - HC  
     8      4     10      1 ;    1.0744e+02    5.6794e+02 ;     C8 - C4   - N1        x -    C - N   
     8      4     12      1 ;    1.2567e+02    6.3019e+02 ;     C8 - C4   - O2        x -    C - O   
     8      6     21      1 ;    1.0934e+02    3.6183e+02 ;     C8 - C6   - H5        x -    x - HC  
     8      6     22      1 ;    1.0934e+02    3.6183e+02 ;     C8 - C6   - H6        x -    x - HC  
     8      7     23      1 ;    1.1117e+02    3.5690e+02 ;     C8 - C7   - H7        x -    x - HC  
     9     13     10      1 ;    1.0276e+02    8.3354e+02 ;     C9 - S1   - N1       CT -    S - N   
    10      3     11      1 ;    1.2257e+02    7.2534e+02 ;     N1 - C3   - O1        N -    C - O   
    10      4     12      1 ;    1.2257e+02    7.2534e+02 ;     N1 - C4   - O2        N -    C - O   
    13      9     14      1 ;    1.1289e+02    5.6794e+02 ;     S1 - C9   - CL1       S -   CT - x   
    13      9     15      1 ;    1.1289e+02    5.6794e+02 ;     S1 - C9   - CL2       S -   CT - x   
    13      9     16      1 ;    1.1289e+02    5.6794e+02 ;     S1 - C9   - CL3       S -   CT - x   
    14      9     15      1 ;    1.0934e+02    5.8225e+02 ;    CL1 - C9   - CL2       x -   CT - x   
    14      9     16      1 ;    1.0934e+02    5.8225e+02 ;    CL1 - C9   - CL3       x -   CT - x   
    15      9     16      1 ;    1.0934e+02    5.8225e+02 ;    CL2 - C9   - CL3       x -   CT - x   
    19      5     20      1 ;    1.0662e+02    3.0066e+02 ;     H3 - C5   - H4       HC -    x - HC  
    21      6     22      1 ;    1.0662e+02    3.0066e+02 ;     H5 - C6   - H6       HC -    x - HC  

[ dihedrals ] ; propers
; for gromacs 4.5 or higher, using funct 9
;    i      j      k      l   func   phase     kd      pn
     1      2      6      8      9 ;     0.00   0.00000   0 ;     C1-    C2-    C6-    C8
     1      2      6     21      9 ;   180.00   1.08784   3 ;     C1-    C2-    C6-    H5
     1      2      6     22      9 ;   180.00   1.08784   3 ;     C1-    C2-    C6-    H6
     1      5      7      3      9 ;     0.00   0.65084   3 ;     C1-    C5-    C7-    C3
     1      5      7      8      9 ;     0.00   0.65084   3 ;     C1-    C5-    C7-    C8
     1      5      7     23      9 ;     0.00   0.65084   3 ;     C1-    C5-    C7-    H7
     2      1      5      7      9 ;     0.00   0.00000   0 ;     C2-    C1-    C5-    C7
     2      1      5     19      9 ;   180.00   1.08784   3 ;     C2-    C1-    C5-    H3
     2      1      5     20      9 ;   180.00   1.08784   3 ;     C2-    C1-    C5-    H4
     2      6      8      4      9 ;     0.00   0.65084   3 ;     C2-    C6-    C8-    C4
     2      6      8      7      9 ;     0.00   0.65084   3 ;     C2-    C6-    C8-    C7
     2      6      8     24      9 ;     0.00   0.65084   3 ;     C2-    C6-    C8-    H8
     3      7      5     19      9 ;     0.00   0.65084   3 ;     C3-    C7-    C5-    H3
     3      7      5     20      9 ;     0.00   0.65084   3 ;     C3-    C7-    C5-    H4
     3      7      8      4      9 ;     0.00   1.54808   2 ;     C3-    C7-    C8-    C4
     3      7      8      4      9 ;     0.00   5.02080   1 ;     C3-    C7-    C8-    C4
     3      7      8      4      9 ;   180.00   0.92978   3 ;     C3-    C7-    C8-    C4
     3      7      8      6      9 ;     0.00   0.00000   0 ;     C3-    C7-    C8-    C6
     3      7      8      6      9 ;     0.00   0.16736   2 ;     C3-    C7-    C8-    C6
     3      7      8      6      9 ;   180.00   1.92464   1 ;     C3-    C7-    C8-    C6
     3      7      8     24      9 ;     0.00   0.65084   3 ;     C3-    C7-    C8-    H8
     3     10      4      8      9 ;   180.00   0.00000   2 ;     C3-    N1-    C4-    C8
     3     10      4      8      9 ;   180.00   7.19648   1 ;     C3-    N1-    C4-    C8
     3     10      4     12      9 ;   180.00  10.46000   2 ;     C3-    N1-    C4-    O2
     3     10     13      9      9 ;     0.00   2.09200   2 ;     C3-    N1-    S1-    C9
     4      8      6     21      9 ;     0.00   0.65084   3 ;     C4-    C8-    C6-    H5
     4      8      6     22      9 ;     0.00   0.65084   3 ;     C4-    C8-    C6-    H6
     4      8      7      5      9 ;     0.00   0.00000   0 ;     C4-    C8-    C7-    C5
     4      8      7      5      9 ;     0.00   0.16736   2 ;     C4-    C8-    C7-    C5
     4      8      7      5      9 ;   180.00   1.92464   1 ;     C4-    C8-    C7-    C5
     4      8      7     23      9 ;     0.00   0.65084   3 ;     C4-    C8-    C7-    H7
     4     10      3      7      9 ;   180.00   0.00000   2 ;     C4-    N1-    C3-    C7
     4     10      3      7      9 ;   180.00   7.19648   1 ;     C4-    N1-    C3-    C7
     4     10      3     11      9 ;   180.00  10.46000   2 ;     C4-    N1-    C3-    O1
     4     10     13      9      9 ;     0.00   2.09200   2 ;     C4-    N1-    S1-    C9
     5      1      2      6      9 ;     0.00   0.62760   1 ;     C5-    C1-    C2-    C6
     5      1      2      6      9 ;   180.00   5.56472   3 ;     C5-    C1-    C2-    C6
     5      1      2      6      9 ;   180.00  24.18352   2 ;     C5-    C1-    C2-    C6
     5      1      2     18      9 ;   180.00  27.82360   2 ;     C5-    C1-    C2-    H2
     5      7      3     10      9 ;   180.00   0.00000   4 ;     C5-    C7-    C3-    N1
     5      7      3     10      9 ;   180.00   2.97064   2 ;     C5-    C7-    C3-    N1
     5      7      3     11      9 ;     0.00   2.84512   1 ;     C5-    C7-    C3-    O1
     5      7      3     11      9 ;   180.00   0.83680   2 ;     C5-    C7-    C3-    O1
     5      7      3     11      9 ;   180.00   1.84096   3 ;     C5-    C7-    C3-    O1
     5      7      8      6      9 ;     0.00   2.17568   3 ;     C5-    C7-    C8-    C6
     5      7      8     24      9 ;     0.00   0.54392   3 ;     C5-    C7-    C8-    H8
     6      8      4     10      9 ;   180.00   0.00000   4 ;     C6-    C8-    C4-    N1
     6      8      4     10      9 ;   180.00   2.97064   2 ;     C6-    C8-    C4-    N1
     6      8      4     12      9 ;     0.00   2.84512   1 ;     C6-    C8-    C4-    O2
     6      8      4     12      9 ;   180.00   0.83680   2 ;     C6-    C8-    C4-    O2
     6      8      4     12      9 ;   180.00   1.84096   3 ;     C6-    C8-    C4-    O2
     6      8      7     23      9 ;     0.00   0.54392   3 ;     C6-    C8-    C7-    H7
     7      3     10     13      9 ;   180.00  10.46000   2 ;     C7-    C3-    N1-    S1
     7      8      4     10      9 ;   180.00   0.00000   4 ;     C7-    C8-    C4-    N1
     7      8      4     10      9 ;   180.00   2.97064   2 ;     C7-    C8-    C4-    N1
     7      8      4     12      9 ;     0.00   2.84512   1 ;     C7-    C8-    C4-    O2
     7      8      4     12      9 ;   180.00   0.83680   2 ;     C7-    C8-    C4-    O2
     7      8      4     12      9 ;   180.00   1.84096   3 ;     C7-    C8-    C4-    O2
     7      8      6     21      9 ;     0.00   0.54392   3 ;     C7-    C8-    C6-    H5
     7      8      6     22      9 ;     0.00   0.54392   3 ;     C7-    C8-    C6-    H6
     8      4     10     13      9 ;   180.00  10.46000   2 ;     C8-    C4-    N1-    S1
     8      6      2     18      9 ;     0.00   0.00000   0 ;     C8-    C6-    C2-    H2
     8      7      3     10      9 ;   180.00   0.00000   4 ;     C8-    C7-    C3-    N1
     8      7      3     10      9 ;   180.00   2.97064   2 ;     C8-    C7-    C3-    N1
     8      7      3     11      9 ;     0.00   2.84512   1 ;     C8-    C7-    C3-    O1
     8      7      3     11      9 ;   180.00   0.83680   2 ;     C8-    C7-    C3-    O1
     8      7      3     11      9 ;   180.00   1.84096   3 ;     C8-    C7-    C3-    O1
     8      7      5     19      9 ;     0.00   0.54392   3 ;     C8-    C7-    C5-    H3
     8      7      5     20      9 ;     0.00   0.54392   3 ;     C8-    C7-    C5-    H4
    10      3      7     23      9 ;   180.00   0.00000   2 ;     N1-    C3-    C7-    H7
    10      4      8     24      9 ;   180.00   0.00000   2 ;     N1-    C4-    C8-    H8
    10     13      9     14      9 ;     0.00   1.39467   3 ;     N1-    S1-    C9-   CL1
    10     13      9     15      9 ;     0.00   1.39467   3 ;     N1-    S1-    C9-   CL2
    10     13      9     16      9 ;     0.00   1.39467   3 ;     N1-    S1-    C9-   CL3
    11      3      7     23      9 ;     0.00  16.86152   1 ;     O1-    C3-    C7-    H7
    11      3      7     23      9 ;   180.00  15.31344   2 ;     O1-    C3-    C7-    H7
    11      3     10     13      9 ;   180.00  10.46000   2 ;     O1-    C3-    N1-    S1
    12      4      8     24      9 ;     0.00  16.86152   1 ;     O2-    C4-    C8-    H8
    12      4      8     24      9 ;   180.00  15.31344   2 ;     O2-    C4-    C8-    H8
    12      4     10     13      9 ;   180.00  10.46000   2 ;     O2-    C4-    N1-    S1
    17      1      2      6      9 ;   180.00  27.82360   2 ;     H1-    C1-    C2-    C6
    17      1      2     18      9 ;   180.00  27.82360   2 ;     H1-    C1-    C2-    H2
    17      1      5      7      9 ;     0.00   0.00000   0 ;     H1-    C1-    C5-    C7
    17      1      5     19      9 ;     0.00   0.00000   0 ;     H1-    C1-    C5-    H3
    17      1      5     20      9 ;     0.00   0.00000   0 ;     H1-    C1-    C5-    H4
    18      2      6     21      9 ;     0.00   0.00000   0 ;     H2-    C2-    C6-    H5
    18      2      6     22      9 ;     0.00   0.00000   0 ;     H2-    C2-    C6-    H6
    19      5      7     23      9 ;     0.00   0.50208   3 ;     H3-    C5-    C7-    H7
    20      5      7     23      9 ;     0.00   0.50208   3 ;     H4-    C5-    C7-    H7
    21      6      8     24      9 ;     0.00   0.50208   3 ;     H5-    C6-    C8-    H8
    22      6      8     24      9 ;     0.00   0.50208   3 ;     H6-    C6-    C8-    H8
    23      7      8     24      9 ;     0.00   0.50208   3 ;     H7-    C7-    C8-    H8

[ dihedrals ] ; impropers
; treated as propers in GROMACS to use correct AMBER analytical function
;    i      j      k      l   func   phase     kd      pn
     1      6      2     18      4 ;   180.00   4.60240   2 ;     C1-    C6-    C2-    H2
     3      4     10     13      4 ;   180.00   4.60240   2 ;     C3-    C4-    N1-    S1
     7     10      3     11      4 ;   180.00  43.93200   2 ;     C7-    N1-    C3-    O1
     8     10      4     12      4 ;   180.00  43.93200   2 ;     C8-    N1-    C4-    O2
    17      1      5      2      4 ;   180.00   4.60240   2 ;     H1-    C1-    C5-    C2
