mobley_1417007_GMX.gro created by acpype (v: 2023.10.27) on Wed May 20 23:56:18 2026
 24
    1  MOL   C1    1   0.163  -0.104  -0.082
    1  MOL   C2    2   0.082  -0.066   0.018
    1  MOL   C3    3   0.364  -0.367   0.117
    1  MOL   C4    4   0.251  -0.276   0.296
    1  MOL   C5    5   0.273  -0.207  -0.067
    1  MOL   C6    6   0.094  -0.118   0.160
    1  MOL   C7    7   0.252  -0.284   0.062
    1  MOL   C8    8   0.228  -0.187   0.177
    1  MOL   C9    9   0.328  -0.624   0.361
    1  MOL   N1   10   0.341  -0.372   0.253
    1  MOL   O1   11   0.451  -0.421   0.052
    1  MOL   O2   12   0.204  -0.258   0.407
    1  MOL   S1   13   0.428  -0.471   0.360
    1  MOL  CL1   14   0.402  -0.741   0.475
    1  MOL  CL2   15   0.160  -0.593   0.415
    1  MOL  CL3   16   0.322  -0.700   0.199
    1  MOL   H1   17   0.150  -0.059  -0.181
    1  MOL   H2   18   0.003   0.007  -0.000
    1  MOL   H3   19   0.269  -0.277  -0.152
    1  MOL   H4   20   0.370  -0.158  -0.070
    1  MOL   H5   21   0.086  -0.035   0.231
    1  MOL   H6   22   0.011  -0.186   0.182
    1  MOL   H7   23   0.166  -0.352   0.050
    1  MOL   H8   24   0.308  -0.111   0.180
    8.96600    14.94400    13.10800
