methyl_ethyl_ether
    12
   1.0660000  -2.6490000   2.1720000   0.1830000   0.9030000   1.8290000
   1.2890000  -1.1660000   1.9690000   0.0350000  -0.4990000   2.0140000
   2.0140000  -3.1940000   2.1420000   0.5800000  -2.8380000   3.1350000
   0.4040000  -3.0500000   1.3970000   1.1930000   1.2040000   2.1160000
  -0.5540000   1.4310000   2.4380000   0.0190000   1.1410000   0.7750000
   1.7540000  -0.9780000   0.9970000   1.9320000  -0.7630000   2.7570000
