; mobley_6911232_GMX_OPLS.itp created by acpype (v: 2023.10.27) on Thu May 21 00:04:26 2026

; For OPLS atomtypes manual fine tuning
; AC_at:OPLS_at:OPLScode: Possible_Alternatives (see ffoplsaa.atp and ffoplsaanb.itp)
; c3:CT:opls_135: ['136', '137', '149', '157', '158', '206', '209', '210', '223B', '224B', '245', '246', '274', '283', '284', '285', '292', '292B', '293B', '296', '307', '308', '505']
; os:x:opls_x: []
; hc:HC:opls_140: []
; h1:HC:opls_140: []

[ moleculetype ]
;name            nrexcl
 mobley_6911232   3

[ atoms ]
;   nr  type  resi  res  atom  cgnr     charge      mass       ; qtot   bond_type
     1 opls_135     1   MOL    C1    1    -0.097100     12.01100 ; qtot -0.097  CT  
     2 opls_135     1   MOL    C2    2     0.116700     12.01100 ; qtot  0.020  CT  
     3 opls_135     1   MOL    C3    3     0.127400     12.01100 ; qtot  0.147  CT  
     4 opls_x     1   MOL    O1    4    -0.422601      0.00000 ; qtot -0.276  x   
     5 opls_140     1   MOL    H1    5     0.044700      1.00800 ; qtot -0.231  HC  
     6 opls_140     1   MOL    H2    6     0.044700      1.00800 ; qtot -0.186  HC  
     7 opls_140     1   MOL    H3    7     0.044700      1.00800 ; qtot -0.142  HC  
     8 opls_140     1   MOL    H4    8     0.031367      1.00800 ; qtot -0.110  HC  
     9 opls_140     1   MOL    H5    9     0.031367      1.00800 ; qtot -0.079  HC  
    10 opls_140     1   MOL    H6   10     0.031367      1.00800 ; qtot -0.047  HC  
    11 opls_140     1   MOL    H7   11     0.023700      1.00800 ; qtot -0.024  HC  
    12 opls_140     1   MOL    H8   12     0.023700      1.00800 ; qtot -0.000  HC  

[ bonds ]
;   ai     aj funct   r             k
     1      3   1 ;    1.5354e-01    1.9154e+05 ;     C1 - C3         CT - CT    
     1      5   1 ;    1.0962e-01    2.8891e+05 ;     C1 - H1         CT - HC    
     1      6   1 ;    1.0962e-01    2.8891e+05 ;     C1 - H2         CT - HC    
     1      7   1 ;    1.0962e-01    2.8891e+05 ;     C1 - H3         CT - HC    
     2      4   1 ;    1.4273e-01    2.3620e+05 ;     C2 - O1         CT - x     
     2      8   1 ;    1.0969e-01    2.8804e+05 ;     C2 - H4         CT - HC    
     2      9   1 ;    1.0969e-01    2.8804e+05 ;     C2 - H5         CT - HC    
     2     10   1 ;    1.0969e-01    2.8804e+05 ;     C2 - H6         CT - HC    
     3      4   1 ;    1.4273e-01    2.3620e+05 ;     C3 - O1         CT - x     
     3     11   1 ;    1.0969e-01    2.8804e+05 ;     C3 - H7         CT - HC    
     3     12   1 ;    1.0969e-01    2.8804e+05 ;     C3 - H8         CT - HC    

[ pairs ]
;   ai     aj    funct
     1      2      1 ;     C1 - C2    
     2     11      1 ;     C2 - H7    
     2     12      1 ;     C2 - H8    
     3      8      1 ;     C3 - H4    
     3      9      1 ;     C3 - H5    
     3     10      1 ;     C3 - H6    
     5      4      1 ;     H1 - O1    
     5     11      1 ;     H1 - H7    
     5     12      1 ;     H1 - H8    
     6      4      1 ;     H2 - O1    
     6     11      1 ;     H2 - H7    
     6     12      1 ;     H2 - H8    
     7      4      1 ;     H3 - O1    
     7     11      1 ;     H3 - H7    
     7     12      1 ;     H3 - H8    

[ angles ]
;   ai     aj     ak    funct   theta         cth
     1      3      4      1 ;    1.0762e+02    6.4802e+02 ;     C1 - C3   - O1       CT -   CT - x   
     1      3     11      1 ;    1.0959e+02    3.6217e+02 ;     C1 - C3   - H7       CT -   CT - HC  
     1      3     12      1 ;    1.0959e+02    3.6217e+02 ;     C1 - C3   - H8       CT -   CT - HC  
     2      4      3      1 ;    1.1360e+02    7.3915e+02 ;     C2 - O1   - C3       CT -    x - CT  
     3      1      5      1 ;    1.0968e+02    3.6208e+02 ;     C3 - C1   - H1       CT -   CT - HC  
     3      1      6      1 ;    1.0968e+02    3.6208e+02 ;     C3 - C1   - H2       CT -   CT - HC  
     3      1      7      1 ;    1.0968e+02    3.6208e+02 ;     C3 - C1   - H3       CT -   CT - HC  
     4      2      8      1 ;    1.1034e+02    4.7028e+02 ;     O1 - C2   - H4        x -   CT - HC  
     4      2      9      1 ;    1.1034e+02    4.7028e+02 ;     O1 - C2   - H5        x -   CT - HC  
     4      2     10      1 ;    1.1034e+02    4.7028e+02 ;     O1 - C2   - H6        x -   CT - HC  
     4      3     11      1 ;    1.1034e+02    4.7028e+02 ;     O1 - C3   - H7        x -   CT - HC  
     4      3     12      1 ;    1.1034e+02    4.7028e+02 ;     O1 - C3   - H8        x -   CT - HC  
     5      1      6      1 ;    1.0773e+02    2.9957e+02 ;     H1 - C1   - H2       HC -   CT - HC  
     5      1      7      1 ;    1.0773e+02    2.9957e+02 ;     H1 - C1   - H3       HC -   CT - HC  
     6      1      7      1 ;    1.0773e+02    2.9957e+02 ;     H2 - C1   - H3       HC -   CT - HC  
     8      2      9      1 ;    1.0855e+02    2.9824e+02 ;     H4 - C2   - H5       HC -   CT - HC  
     8      2     10      1 ;    1.0855e+02    2.9824e+02 ;     H4 - C2   - H6       HC -   CT - HC  
     9      2     10      1 ;    1.0855e+02    2.9824e+02 ;     H5 - C2   - H6       HC -   CT - HC  
    11      3     12      1 ;    1.0855e+02    2.9824e+02 ;     H7 - C3   - H8       HC -   CT - HC  

[ dihedrals ] ; propers
; for gromacs 4.5 or higher, using funct 9
;    i      j      k      l   func   phase     kd      pn
     1      3      4      2      9 ;     0.00   0.33472   2 ;     C1-    C3-    O1-    C2
     1      3      4      2      9 ;     0.00   3.13800   3 ;     C1-    C3-    O1-    C2
     1      3      4      2      9 ;   180.00   3.68192   1 ;     C1-    C3-    O1-    C2
     2      4      3     11      9 ;     0.00   1.41001   3 ;     C2-    O1-    C3-    H7
     2      4      3     12      9 ;     0.00   1.41001   3 ;     C2-    O1-    C3-    H8
     3      4      2      8      9 ;     0.00   1.41001   3 ;     C3-    O1-    C2-    H4
     3      4      2      9      9 ;     0.00   1.41001   3 ;     C3-    O1-    C2-    H5
     3      4      2     10      9 ;     0.00   1.41001   3 ;     C3-    O1-    C2-    H6
     5      1      3      4      9 ;     0.00   0.00000   0 ;     H1-    C1-    C3-    O1
     5      1      3      4      9 ;     0.00   1.04600   1 ;     H1-    C1-    C3-    O1
     5      1      3     11      9 ;     0.00   0.65084   3 ;     H1-    C1-    C3-    H7
     5      1      3     12      9 ;     0.00   0.65084   3 ;     H1-    C1-    C3-    H8
     6      1      3      4      9 ;     0.00   0.00000   0 ;     H2-    C1-    C3-    O1
     6      1      3      4      9 ;     0.00   1.04600   1 ;     H2-    C1-    C3-    O1
     6      1      3     11      9 ;     0.00   0.65084   3 ;     H2-    C1-    C3-    H7
     6      1      3     12      9 ;     0.00   0.65084   3 ;     H2-    C1-    C3-    H8
     7      1      3      4      9 ;     0.00   0.00000   0 ;     H3-    C1-    C3-    O1
     7      1      3      4      9 ;     0.00   1.04600   1 ;     H3-    C1-    C3-    O1
     7      1      3     11      9 ;     0.00   0.65084   3 ;     H3-    C1-    C3-    H7
     7      1      3     12      9 ;     0.00   0.65084   3 ;     H3-    C1-    C3-    H8
