; mobley_6911232_GMX_OPLS.top created by acpype (v: 2023.10.27) on Thu May 21 00:04:26 2026

; Include forcefield parameters
#include "ffoplsaa.itp"

; Include mobley_6911232_GMX.itp topology
#include "mobley_6911232_GMX.itp"

; Ligand position restraints
#ifdef POSRES_LIG
#include "posre_mobley_6911232.itp"
#endif

[ system ]
 mobley_6911232

[ molecules ]
; Compound        nmols
 mobley_6911232   1     
