; mobley_4188615_GMX_OPLS.top created by acpype (v: 2023.10.27) on Wed May 20 23:53:36 2026

; Include forcefield parameters
#include "ffoplsaa.itp"

; Include mobley_4188615_GMX.itp topology
#include "mobley_4188615_GMX.itp"

; Ligand position restraints
#ifdef POSRES_LIG
#include "posre_mobley_4188615.itp"
#endif

[ system ]
 mobley_4188615

[ molecules ]
; Compound        nmols
 mobley_4188615   1     
