NN_dimethylbenzamide
    22
   1.7420000  -1.1610000  -0.1510000   0.6920000  -0.5510000   0.5350000
   2.8150000  -1.7040000   0.5560000   0.7140000  -0.4850000   1.9280000
   2.8370000  -1.6380000   1.9490000   1.7870000  -1.0290000   2.6350000
   1.8100000  -0.9590000   4.0880000   1.2310000  -2.0170000   6.2850000
   0.5970000  -3.1550000   4.1870000   1.2330000  -2.0070000   4.8290000
   2.3570000   0.0290000   4.5940000   1.7250000  -1.2120000  -1.2360000
  -0.1430000  -0.1270000  -0.0150000   3.6320000  -2.1800000   0.0220000
  -0.1100000  -0.0070000   2.4520000   3.6780000  -2.0660000   2.4900000
   0.1970000  -1.9890000   6.6340000   1.7740000  -1.1400000   6.6440000
   1.7220000  -2.9290000   6.6320000  -0.3340000  -3.3800000   4.7130000
   1.2750000  -4.0090000   4.2410000   0.3890000  -2.9060000   3.1440000
