; mobley_4188615_GMX_OPLS.itp created by acpype (v: 2023.10.27) on Wed May 20 23:53:36 2026

; For OPLS atomtypes manual fine tuning
; AC_at:OPLS_at:OPLScode: Possible_Alternatives (see ffoplsaa.atp and ffoplsaanb.itp)
; ca:CA:opls_145: ['166', '501', '502']
; c:C:opls_235: ['271']
; c3:CT:opls_135: ['136', '137', '149', '157', '158', '206', '209', '210', '223B', '224B', '245', '246', '274', '283', '284', '285', '292', '292B', '293B', '296', '307', '308', '505']
; n:N:opls_237: ['238', '239']
; o:O:opls_236: ['272']
; ha:HA:opls_146: []
; h1:HC:opls_140: []

[ moleculetype ]
;name            nrexcl
 mobley_4188615   3

[ atoms ]
;   nr  type  resi  res  atom  cgnr     charge      mass       ; qtot   bond_type
     1 opls_145     1   MOL    C1    1    -0.115000     12.01100 ; qtot -0.115  CA  
     2 opls_145     1   MOL    C2    2    -0.134500     12.01100 ; qtot -0.249  CA  
     3 opls_145     1   MOL    C3    3    -0.134500     12.01100 ; qtot -0.384  CA  
     4 opls_145     1   MOL    C4    4    -0.098000     12.01100 ; qtot -0.482  CA  
     5 opls_145     1   MOL    C5    5    -0.098000     12.01100 ; qtot -0.580  CA  
     6 opls_145     1   MOL    C6    6    -0.129600     12.01100 ; qtot -0.710  CA  
     7 opls_235     1   MOL    C7    7     0.669702     12.01100 ; qtot -0.040  C   
     8 opls_135     1   MOL    C8    8     0.075300     12.01100 ; qtot  0.035  CT  
     9 opls_135     1   MOL    C9    9     0.075300     12.01100 ; qtot  0.111  CT  
    10 opls_237     1   MOL    N1   10    -0.473800     14.00670 ; qtot -0.363  N   
    11 opls_236     1   MOL    O1   11    -0.594100     15.99940 ; qtot -0.957  O   
    12 opls_146     1   MOL    H1   12     0.135000      1.00800 ; qtot -0.822  HA  
    13 opls_146     1   MOL    H2   13     0.136500      1.00800 ; qtot -0.686  HA  
    14 opls_146     1   MOL    H3   14     0.136500      1.00800 ; qtot -0.549  HA  
    15 opls_146     1   MOL    H4   15     0.144000      1.00800 ; qtot -0.405  HA  
    16 opls_146     1   MOL    H5   16     0.144000      1.00800 ; qtot -0.261  HA  
    17 opls_140     1   MOL    H6   17     0.043533      1.00800 ; qtot -0.218  HC  
    18 opls_140     1   MOL    H7   18     0.043533      1.00800 ; qtot -0.174  HC  
    19 opls_140     1   MOL    H8   19     0.043533      1.00800 ; qtot -0.131  HC  
    20 opls_140     1   MOL    H9   20     0.043533      1.00800 ; qtot -0.087  HC  
    21 opls_140     1   MOL   H10   21     0.043533      1.00800 ; qtot -0.044  HC  
    22 opls_140     1   MOL   H11   22     0.043533      1.00800 ; qtot  0.000  HC  

[ bonds ]
;   ai     aj funct   r             k
     1      2   1 ;    1.3986e-01    2.9644e+05 ;     C1 - C2         CA - CA    
     1      3   1 ;    1.3986e-01    2.9644e+05 ;     C1 - C3         CA - CA    
     1     12   1 ;    1.0860e-01    3.0183e+05 ;     C1 - H1         CA - HA    
     2      4   1 ;    1.3986e-01    2.9644e+05 ;     C2 - C4         CA - CA    
     2     13   1 ;    1.0860e-01    3.0183e+05 ;     C2 - H2         CA - HA    
     3      5   1 ;    1.3986e-01    2.9644e+05 ;     C3 - C5         CA - CA    
     3     14   1 ;    1.0860e-01    3.0183e+05 ;     C3 - H3         CA - HA    
     4      6   1 ;    1.3986e-01    2.9644e+05 ;     C4 - C6         CA - CA    
     4     15   1 ;    1.0860e-01    3.0183e+05 ;     C4 - H4         CA - HA    
     5      6   1 ;    1.3986e-01    2.9644e+05 ;     C5 - C6         CA - CA    
     5     16   1 ;    1.0860e-01    3.0183e+05 ;     C5 - H5         CA - HA    
     6      7   1 ;    1.4907e-01    2.1994e+05 ;     C6 - C7         CA - C     
     7     10   1 ;    1.3967e-01    2.6565e+05 ;     C7 - N1          C - N     
     7     11   1 ;    1.2190e-01    4.9421e+05 ;     C7 - O1          C - O     
     8     10   1 ;    1.4643e-01    2.1293e+05 ;     C8 - N1         CT - N     
     8     17   1 ;    1.0969e-01    2.8804e+05 ;     C8 - H6         CT - HC    
     8     18   1 ;    1.0969e-01    2.8804e+05 ;     C8 - H7         CT - HC    
     8     19   1 ;    1.0969e-01    2.8804e+05 ;     C8 - H8         CT - HC    
     9     10   1 ;    1.4643e-01    2.1293e+05 ;     C9 - N1         CT - N     
     9     20   1 ;    1.0969e-01    2.8804e+05 ;     C9 - H9         CT - HC    
     9     21   1 ;    1.0969e-01    2.8804e+05 ;     C9 - H10        CT - HC    
     9     22   1 ;    1.0969e-01    2.8804e+05 ;     C9 - H11        CT - HC    

[ pairs ]
;   ai     aj    funct
     1      6      1 ;     C1 - C6    
     1     15      1 ;     C1 - H4    
     1     16      1 ;     C1 - H5    
     2      5      1 ;     C2 - C5    
     2      7      1 ;     C2 - C7    
     2     14      1 ;     C2 - H3    
     3      4      1 ;     C3 - C4    
     3      7      1 ;     C3 - C7    
     3     13      1 ;     C3 - H2    
     4     10      1 ;     C4 - N1    
     4     11      1 ;     C4 - O1    
     4     16      1 ;     C4 - H5    
     5     10      1 ;     C5 - N1    
     5     11      1 ;     C5 - O1    
     5     15      1 ;     C5 - H4    
     6      8      1 ;     C6 - C8    
     6      9      1 ;     C6 - C9    
     6     13      1 ;     C6 - H2    
     6     14      1 ;     C6 - H3    
     7     15      1 ;     C7 - H4    
     7     16      1 ;     C7 - H5    
     7     17      1 ;     C7 - H6    
     7     18      1 ;     C7 - H7    
     7     19      1 ;     C7 - H8    
     7     20      1 ;     C7 - H9    
     7     21      1 ;     C7 - H10   
     7     22      1 ;     C7 - H11   
     8     11      1 ;     C8 - O1    
     8     20      1 ;     C8 - H9    
     8     21      1 ;     C8 - H10   
     8     22      1 ;     C8 - H11   
     9     11      1 ;     C9 - O1    
     9     17      1 ;     C9 - H6    
     9     18      1 ;     C9 - H7    
     9     19      1 ;     C9 - H8    
    12      4      1 ;     H1 - C4    
    12      5      1 ;     H1 - C5    
    12     13      1 ;     H1 - H2    
    12     14      1 ;     H1 - H3    
    13     15      1 ;     H2 - H4    
    14     16      1 ;     H3 - H5    

[ angles ]
;   ai     aj     ak    funct   theta         cth
     1      2      4      1 ;    1.2002e+02    5.3279e+02 ;     C1 - C2   - C4       CA -   CA - CA  
     1      2     13      1 ;    1.1988e+02    3.7572e+02 ;     C1 - C2   - H2       CA -   CA - HA  
     1      3      5      1 ;    1.2002e+02    5.3279e+02 ;     C1 - C3   - C5       CA -   CA - CA  
     1      3     14      1 ;    1.1988e+02    3.7572e+02 ;     C1 - C3   - H3       CA -   CA - HA  
     2      1      3      1 ;    1.2002e+02    5.3279e+02 ;     C2 - C1   - C3       CA -   CA - CA  
     2      1     12      1 ;    1.1988e+02    3.7572e+02 ;     C2 - C1   - H1       CA -   CA - HA  
     2      4      6      1 ;    1.2002e+02    5.3279e+02 ;     C2 - C4   - C6       CA -   CA - CA  
     2      4     15      1 ;    1.1988e+02    3.7572e+02 ;     C2 - C4   - H4       CA -   CA - HA  
     3      1     12      1 ;    1.1988e+02    3.7572e+02 ;     C3 - C1   - H1       CA -   CA - HA  
     3      5      6      1 ;    1.2002e+02    5.3279e+02 ;     C3 - C5   - C6       CA -   CA - CA  
     3      5     16      1 ;    1.1988e+02    3.7572e+02 ;     C3 - C5   - H5       CA -   CA - HA  
     4      2     13      1 ;    1.1988e+02    3.7572e+02 ;     C4 - C2   - H2       CA -   CA - HA  
     4      6      5      1 ;    1.2002e+02    5.3279e+02 ;     C4 - C6   - C5       CA -   CA - CA  
     4      6      7      1 ;    1.2033e+02    5.1413e+02 ;     C4 - C6   - C7       CA -   CA - C   
     5      3     14      1 ;    1.1988e+02    3.7572e+02 ;     C5 - C3   - H3       CA -   CA - HA  
     5      6      7      1 ;    1.2033e+02    5.1413e+02 ;     C5 - C6   - C7       CA -   CA - C   
     6      4     15      1 ;    1.1988e+02    3.7572e+02 ;     C6 - C4   - H4       CA -   CA - HA  
     6      5     16      1 ;    1.1988e+02    3.7572e+02 ;     C6 - C5   - H5       CA -   CA - HA  
     6      7     10      1 ;    1.1588e+02    5.5647e+02 ;     C6 - C7   - N1       CA -    C - N   
     6      7     11      1 ;    1.2260e+02    6.5237e+02 ;     C6 - C7   - O1       CA -    C - O   
     7     10      8      1 ;    1.1883e+02    6.4634e+02 ;     C7 - N1   - C8        C -    N - CT  
     7     10      9      1 ;    1.1883e+02    6.4634e+02 ;     C7 - N1   - C9        C -    N - CT  
     8     10      9      1 ;    1.1675e+02    6.3773e+02 ;     C8 - N1   - C9       CT -    N - CT  
    10      7     11      1 ;    1.2257e+02    7.2534e+02 ;     N1 - C7   - O1        N -    C - O   
    10      8     17      1 ;    1.0876e+02    4.0242e+02 ;     N1 - C8   - H6        N -   CT - HC  
    10      8     18      1 ;    1.0876e+02    4.0242e+02 ;     N1 - C8   - H7        N -   CT - HC  
    10      8     19      1 ;    1.0876e+02    4.0242e+02 ;     N1 - C8   - H8        N -   CT - HC  
    10      9     20      1 ;    1.0876e+02    4.0242e+02 ;     N1 - C9   - H9        N -   CT - HC  
    10      9     21      1 ;    1.0876e+02    4.0242e+02 ;     N1 - C9   - H10       N -   CT - HC  
    10      9     22      1 ;    1.0876e+02    4.0242e+02 ;     N1 - C9   - H11       N -   CT - HC  
    17      8     18      1 ;    1.0855e+02    2.9824e+02 ;     H6 - C8   - H7       HC -   CT - HC  
    17      8     19      1 ;    1.0855e+02    2.9824e+02 ;     H6 - C8   - H8       HC -   CT - HC  
    18      8     19      1 ;    1.0855e+02    2.9824e+02 ;     H7 - C8   - H8       HC -   CT - HC  
    20      9     21      1 ;    1.0855e+02    2.9824e+02 ;     H9 - C9   - H10      HC -   CT - HC  
    20      9     22      1 ;    1.0855e+02    2.9824e+02 ;     H9 - C9   - H11      HC -   CT - HC  
    21      9     22      1 ;    1.0855e+02    2.9824e+02 ;    H10 - C9   - H11      HC -   CT - HC  

[ dihedrals ] ; propers
; for gromacs 4.5 or higher, using funct 9
;    i      j      k      l   func   phase     kd      pn
     1      2      4      6      9 ;   180.00  15.16700   2 ;     C1-    C2-    C4-    C6
     1      2      4     15      9 ;   180.00  15.16700   2 ;     C1-    C2-    C4-    H4
     1      3      5      6      9 ;   180.00  15.16700   2 ;     C1-    C3-    C5-    C6
     1      3      5     16      9 ;   180.00  15.16700   2 ;     C1-    C3-    C5-    H5
     2      1      3      5      9 ;   180.00  15.16700   2 ;     C2-    C1-    C3-    C5
     2      1      3     14      9 ;   180.00  15.16700   2 ;     C2-    C1-    C3-    H3
     2      4      6      5      9 ;   180.00  15.16700   2 ;     C2-    C4-    C6-    C5
     2      4      6      7      9 ;   180.00  15.16700   2 ;     C2-    C4-    C6-    C7
     3      1      2      4      9 ;   180.00  15.16700   2 ;     C3-    C1-    C2-    C4
     3      1      2     13      9 ;   180.00  15.16700   2 ;     C3-    C1-    C2-    H2
     3      5      6      4      9 ;   180.00  15.16700   2 ;     C3-    C5-    C6-    C4
     3      5      6      7      9 ;   180.00  15.16700   2 ;     C3-    C5-    C6-    C7
     4      6      5     16      9 ;   180.00  15.16700   2 ;     C4-    C6-    C5-    H5
     4      6      7     10      9 ;   180.00   8.88054   2 ;     C4-    C6-    C7-    N1
     4      6      7     11      9 ;   180.00   2.42672   2 ;     C4-    C6-    C7-    O1
     5      6      4     15      9 ;   180.00  15.16700   2 ;     C5-    C6-    C4-    H4
     5      6      7     10      9 ;   180.00   8.88054   2 ;     C5-    C6-    C7-    N1
     5      6      7     11      9 ;   180.00   2.42672   2 ;     C5-    C6-    C7-    O1
     6      4      2     13      9 ;   180.00  15.16700   2 ;     C6-    C4-    C2-    H2
     6      5      3     14      9 ;   180.00  15.16700   2 ;     C6-    C5-    C3-    H3
     6      7     10      8      9 ;     0.00   1.71544   3 ;     C6-    C7-    N1-    C8
     6      7     10      8      9 ;     0.00  20.16688   1 ;     C6-    C7-    N1-    C8
     6      7     10      8      9 ;   180.00   9.12112   2 ;     C6-    C7-    N1-    C8
     6      7     10      9      9 ;     0.00   1.71544   3 ;     C6-    C7-    N1-    C9
     6      7     10      9      9 ;     0.00  20.16688   1 ;     C6-    C7-    N1-    C9
     6      7     10      9      9 ;   180.00   9.12112   2 ;     C6-    C7-    N1-    C9
     7      6      4     15      9 ;   180.00  15.16700   2 ;     C7-    C6-    C4-    H4
     7      6      5     16      9 ;   180.00  15.16700   2 ;     C7-    C6-    C5-    H5
     7     10      8     17      9 ;   180.00   0.00000   2 ;     C7-    N1-    C8-    H6
     7     10      8     18      9 ;   180.00   0.00000   2 ;     C7-    N1-    C8-    H7
     7     10      8     19      9 ;   180.00   0.00000   2 ;     C7-    N1-    C8-    H8
     7     10      9     20      9 ;   180.00   0.00000   2 ;     C7-    N1-    C9-    H9
     7     10      9     21      9 ;   180.00   0.00000   2 ;     C7-    N1-    C9-   H10
     7     10      9     22      9 ;   180.00   0.00000   2 ;     C7-    N1-    C9-   H11
     8     10      7     11      9 ;   180.00  10.46000   2 ;     C8-    N1-    C7-    O1
     8     10      9     20      9 ;     0.00   0.00000   0 ;     C8-    N1-    C9-    H9
     8     10      9     21      9 ;     0.00   0.00000   0 ;     C8-    N1-    C9-   H10
     8     10      9     22      9 ;     0.00   0.00000   0 ;     C8-    N1-    C9-   H11
     9     10      7     11      9 ;   180.00  10.46000   2 ;     C9-    N1-    C7-    O1
     9     10      8     17      9 ;     0.00   0.00000   0 ;     C9-    N1-    C8-    H6
     9     10      8     18      9 ;     0.00   0.00000   0 ;     C9-    N1-    C8-    H7
     9     10      8     19      9 ;     0.00   0.00000   0 ;     C9-    N1-    C8-    H8
    12      1      2      4      9 ;   180.00  15.16700   2 ;     H1-    C1-    C2-    C4
    12      1      2     13      9 ;   180.00  15.16700   2 ;     H1-    C1-    C2-    H2
    12      1      3      5      9 ;   180.00  15.16700   2 ;     H1-    C1-    C3-    C5
    12      1      3     14      9 ;   180.00  15.16700   2 ;     H1-    C1-    C3-    H3
    13      2      4     15      9 ;   180.00  15.16700   2 ;     H2-    C2-    C4-    H4
    14      3      5     16      9 ;   180.00  15.16700   2 ;     H3-    C3-    C5-    H5

[ dihedrals ] ; impropers
; treated as propers in GROMACS to use correct AMBER analytical function
;    i      j      k      l   func   phase     kd      pn
     1      4      2     13      4 ;   180.00   4.60240   2 ;     C1-    C4-    C2-    H2
     1      5      3     14      4 ;   180.00   4.60240   2 ;     C1-    C5-    C3-    H3
     2      6      4     15      4 ;   180.00   4.60240   2 ;     C2-    C6-    C4-    H4
     3      6      5     16      4 ;   180.00   4.60240   2 ;     C3-    C6-    C5-    H5
     6     10      7     11      4 ;   180.00  43.93200   2 ;     C6-    N1-    C7-    O1
     7      4      6      5      4 ;   180.00   4.60240   2 ;     C7-    C4-    C6-    C5
     7      8     10      9      4 ;   180.00   4.60240   2 ;     C7-    C8-    N1-    C9
    12      1      3      2      4 ;   180.00   4.60240   2 ;     H1-    C1-    C3-    C2
