%VERSION  VERSION_STAMP = V0001.000  DATE = 05/20/26  23:53:40                  
%FLAG TITLE                                                                     
%FORMAT(20a4)                                                                   
NN_dimethylbenzamide                                                            
%FLAG POINTERS                                                                  
%FORMAT(10I8)                                                                   
      22       6      11      11      22      14      33      23       0       0
     104       1      11      14      23       7      10      11       7       0
       0       0       0       0       0       0       0       0      22       0
       0
%FLAG ATOM_NAME                                                                 
%FORMAT(20a4)                                                                   
C1  C2  C3  C4  C5  C6  C7  C8  C9  N1  O1  H1  H2  H3  H4  H5  H6  H7  H8  H9  
H10 H11 
%FLAG CHARGE                                                                    
%FORMAT(5E16.8)                                                                 
 -2.09556450E+00 -2.45089935E+00 -2.45089935E+00 -1.78578540E+00 -1.78578540E+00
 -2.36161008E+00  1.22034743E+01  1.37213919E+00  1.37213919E+00 -8.63372574E+00
 -1.08258684E+01  2.46001050E+00  2.48734395E+00  2.48734395E+00  2.62401120E+00
  2.62401120E+00  7.93271386E-01  7.93271386E-01  7.93271386E-01  7.93271386E-01
  7.93271386E-01  7.93271386E-01
%FLAG ATOMIC_NUMBER                                                             
%FORMAT(10I8)                                                                   
       6       6       6       6       6       6       6       6       6       7
       8       1       1       1       1       1       1       1       1       1
       1       1
%FLAG MASS                                                                      
%FORMAT(5E16.8)                                                                 
  1.20100000E+01  1.20100000E+01  1.20100000E+01  1.20100000E+01  1.20100000E+01
  1.20100000E+01  1.20100000E+01  1.20100000E+01  1.20100000E+01  1.40100000E+01
  1.60000000E+01  1.00800000E+00  1.00800000E+00  1.00800000E+00  1.00800000E+00
  1.00800000E+00  1.00800000E+00  1.00800000E+00  1.00800000E+00  1.00800000E+00
  1.00800000E+00  1.00800000E+00
%FLAG ATOM_TYPE_INDEX                                                           
%FORMAT(10I8)                                                                   
       1       1       1       1       1       1       1       2       2       3
       4       5       5       5       5       5       6       6       6       6
       6       6
%FLAG NUMBER_EXCLUDED_ATOMS                                                     
%FORMAT(10I8)                                                                   
      10       9       8       9       8       9      12       9       8       7
       1       2       1       1       1       1       2       1       1       2
       1       1
%FLAG NONBONDED_PARM_INDEX                                                      
%FORMAT(10I8)                                                                   
       1       2       4       7      11      16       2       3       5       8
      12      17       4       5       6       9      13      18       7       8
       9      10      14      19      11      12      13      14      15      20
      16      17      18      19      20      21
%FLAG RESIDUE_LABEL                                                             
%FORMAT(20a4)                                                                   
MOL 
%FLAG RESIDUE_POINTER                                                           
%FORMAT(10I8)                                                                   
       1
%FLAG BOND_FORCE_CONSTANT                                                       
%FORMAT(5E16.8)                                                                 
  3.54250000E+02  3.60690000E+02  2.62840000E+02  3.17460000E+02  5.90600000E+02
  2.54460000E+02  3.44220000E+02
%FLAG BOND_EQUIL_VALUE                                                          
%FORMAT(5E16.8)                                                                 
  1.39860000E+00  1.08600000E+00  1.49070000E+00  1.39670000E+00  1.21900000E+00
  1.46430000E+00  1.09690000E+00
%FLAG ANGLE_FORCE_CONSTANT                                                      
%FORMAT(5E16.8)                                                                 
  6.36700000E+01  4.49000000E+01  6.14400000E+01  6.65000000E+01  7.79600000E+01
  7.72400000E+01  7.62100000E+01  8.66800000E+01  4.80900000E+01  3.56400000E+01
%FLAG ANGLE_EQUIL_VALUE                                                         
%FORMAT(5E16.8)                                                                 
  2.09474507E+00  2.09230160E+00  2.10015559E+00  2.02248840E+00  2.13977458E+00
  2.07397564E+00  2.03767278E+00  2.13925098E+00  1.89822091E+00  1.89455572E+00
%FLAG DIHEDRAL_FORCE_CONSTANT                                                   
%FORMAT(5E16.8)                                                                 
  3.62500000E+00  2.12250000E+00  5.80000000E-01  4.82000000E+00  2.18000000E+00
  4.10000000E-01  0.00000000E+00  2.50000000E+00  0.00000000E+00  1.10000000E+00
  1.05000000E+01
%FLAG DIHEDRAL_PERIODICITY                                                      
%FORMAT(5E16.8)                                                                 
  2.00000000E+00  2.00000000E+00  2.00000000E+00  1.00000000E+00  2.00000000E+00
  3.00000000E+00  2.00000000E+00  2.00000000E+00  2.00000000E+00  2.00000000E+00
  2.00000000E+00
%FLAG DIHEDRAL_PHASE                                                            
%FORMAT(5E16.8)                                                                 
  3.14159400E+00  3.14159400E+00  3.14159400E+00  0.00000000E+00  3.14159400E+00
  0.00000000E+00  3.14159400E+00  3.14159400E+00  0.00000000E+00  3.14159400E+00
  3.14159400E+00
%FLAG SCEE_SCALE_FACTOR                                                         
%FORMAT(5E16.8)                                                                 
  1.20000000E+00  1.20000000E+00  1.20000000E+00  1.20000000E+00  1.20000000E+00
  1.20000000E+00  1.20000000E+00  1.20000000E+00  1.20000000E+00  0.00000000E+00
  0.00000000E+00
%FLAG SCNB_SCALE_FACTOR                                                         
%FORMAT(5E16.8)                                                                 
  2.00000000E+00  2.00000000E+00  2.00000000E+00  2.00000000E+00  2.00000000E+00
  2.00000000E+00  2.00000000E+00  2.00000000E+00  2.00000000E+00  0.00000000E+00
  0.00000000E+00
%FLAG SOLTY                                                                     
%FORMAT(5E16.8)                                                                 
  0.00000000E+00  0.00000000E+00  0.00000000E+00  0.00000000E+00  0.00000000E+00
  0.00000000E+00  0.00000000E+00
%FLAG LENNARD_JONES_ACOEF                                                       
%FORMAT(5E16.8)                                                                 
  6.96551276E+05  8.43969952E+05  1.02073671E+06  7.01106848E+05  8.52084164E+05
  7.02078680E+05  5.17507491E+05  6.30925504E+05  5.15491878E+05  3.76435470E+05
  7.52549148E+04  9.27554496E+04  7.35931098E+04  5.27277400E+04  6.90855956E+03
  5.63013422E+04  6.97998263E+04  5.45183252E+04  3.86646725E+04  4.88692384E+03
  3.39005767E+03
%FLAG LENNARD_JONES_BCOEF                                                       
%FORMAT(5E16.8)                                                                 
  5.24668528E+02  5.90251928E+02  6.63431737E+02  5.97113873E+02  6.72777963E+02
  6.77820248E+02  4.98871431E+02  5.62969425E+02  5.64804067E+02  4.69350655E+02
  1.09570372E+02  1.24325688E+02  1.22913863E+02  1.01173582E+02  2.10929191E+01
  1.01040256E+02  1.14981426E+02  1.12788003E+02  9.23664132E+01  1.89134207E+01
  1.67944276E+01
%FLAG BONDS_INC_HYDROGEN                                                        
%FORMAT(10I8)                                                                   
       0      33       2       3      36       2       6      39       2       9
      42       2      12      45       2      21      48       7      21      51
       7      21      54       7      24      57       7      24      60       7
      24      63       7
%FLAG BONDS_WITHOUT_HYDROGEN                                                    
%FORMAT(10I8)                                                                   
       0       3       1       0       6       1       3       9       1       6
      12       1       9      15       1      12      15       1      15      18
       3      18      27       4      18      30       5      21      27       6
      24      27       6
%FLAG ANGLES_INC_HYDROGEN                                                       
%FORMAT(10I8)                                                                   
       0       3      36       2       0       6      39       2       3       0
      33       2       3       9      42       2       6       0      33       2
       6      12      45       2       9       3      36       2      12       6
      39       2      15       9      42       2      15      12      45       2
      27      21      48       9      27      21      51       9      27      21
      54       9      27      24      57       9      27      24      60       9
      27      24      63       9      48      21      51      10      48      21
      54      10      51      21      54      10      57      24      60      10
      57      24      63      10      60      24      63      10
%FLAG ANGLES_WITHOUT_HYDROGEN                                                   
%FORMAT(10I8)                                                                   
       0       3       9       1       0       6      12       1       3       0
       6       1       3       9      15       1       6      12      15       1
       9      15      12       1       9      15      18       3      12      15
      18       3      15      18      27       4      15      18      30       5
      18      27      21       6      18      27      24       6      21      27
      24       7      27      18      30       8
%FLAG DIHEDRALS_INC_HYDROGEN                                                    
%FORMAT(10I8)                                                                   
       0       3       9      42       1       0       6      12      45       1
       3       0       6      39       1       6       0       3      36       1
      33       0       3       9       1       9      15      12      45       1
      33       0       6      12       1      12      15       9      42       1
      15       9       3      36       1      15      12       6      39       1
      18      15       9      42       1      18      15      12      45       1
      18      27      21      48       7      18      27      21      51       7
      18      27      21      54       7      18      27      24      57       7
      18      27      24      60       7      18      27      24      63       7
      21      27      24      57       9      21      27      24      60       9
      21      27      24      63       9      24      27      21      48       9
      24      27      21      51       9      24      27      21      54       9
      33       0       3      36       1      33       0       6      39       1
      36       3       9      42       1      39       6      12      45       1
      33       0      -6      -3      10       0       9      -3     -36      10
       0      12      -6     -39      10       3      15      -9     -42      10
       6      15     -12     -45      10
%FLAG DIHEDRALS_WITHOUT_HYDROGEN                                                
%FORMAT(10I8)                                                                   
       0       3       9      15       1       0       6     -12      15       1
       3       0       6      12       1       3       9     -15      12       1
       3       9      15      18       1       6       0       3       9       1
       6      12     -15       9       1       6      12      15      18       1
       9      15      18      27       2       9      15      18      30       3
      12      15      18      27       2      12      15      18      30       3
      15      18      27      21       4      15      18     -27      21       5
      15      18     -27      21       6      15      18      27      24       4
      15      18     -27      24       5      15      18     -27      24       6
      21      27      18      30       8      24      27      18      30       8
      18       9     -15     -12      10      15      27     -18     -30      11
      18      21     -27     -24      10
%FLAG EXCLUDED_ATOMS_LIST                                                       
%FORMAT(10I8)                                                                   
       2       3       4       5       6      12      13      14      15      16
       3       4       5       6       7      12      13      14      15       4
       5       6       7      12      13      14      16       5       6       7
      10      11      12      13      15      16       6       7      10      11
      12      14      15      16       7       8       9      10      11      13
      14      15      16       8       9      10      11      15      16      17
      18      19      20      21      22       9      10      11      17      18
      19      20      21      22      10      11      17      18      19      20
      21      22      11      17      18      19      20      21      22       0
      13      14      15      16       0       0      18      19      19       0
      21      22      22       0
%FLAG HBOND_ACOEF                                                               
%FORMAT(5E16.8)                                                                 

%FLAG HBOND_BCOEF                                                               
%FORMAT(5E16.8)                                                                 

%FLAG HBCUT                                                                     
%FORMAT(5E16.8)                                                                 

%FLAG AMBER_ATOM_TYPE                                                           
%FORMAT(20a4)                                                                   
ca  ca  ca  ca  ca  ca  c   c3  c3  n   o   ha  ha  ha  ha  ha  h1  h1  h1  h1  
h1  h1  
%FLAG TREE_CHAIN_CLASSIFICATION                                                 
%FORMAT(20a4)                                                                   
BLA BLA BLA BLA BLA BLA BLA BLA BLA BLA BLA BLA BLA BLA BLA BLA BLA BLA BLA BLA 
BLA BLA 
%FLAG JOIN_ARRAY                                                                
%FORMAT(10I8)                                                                   
       0       0       0       0       0       0       0       0       0       0
       0       0       0       0       0       0       0       0       0       0
       0       0
%FLAG IROTAT                                                                    
%FORMAT(10I8)                                                                   
       0       0       0       0       0       0       0       0       0       0
       0       0       0       0       0       0       0       0       0       0
       0       0
%FLAG RADIUS_SET                                                                
%FORMAT(1a80)                                                                   
modified Bondi radii (mbondi)                                                   
%FLAG RADII                                                                     
%FORMAT(5E16.8)                                                                 
  1.70000000E+00  1.70000000E+00  1.70000000E+00  1.70000000E+00  1.70000000E+00
  1.70000000E+00  1.70000000E+00  1.70000000E+00  1.70000000E+00  1.55000000E+00
  1.50000000E+00  1.30000000E+00  1.30000000E+00  1.30000000E+00  1.30000000E+00
  1.30000000E+00  1.30000000E+00  1.30000000E+00  1.30000000E+00  1.30000000E+00
  1.30000000E+00  1.30000000E+00
%FLAG SCREEN                                                                    
%FORMAT(5E16.8)                                                                 
  7.20000000E-01  7.20000000E-01  7.20000000E-01  7.20000000E-01  7.20000000E-01
  7.20000000E-01  7.20000000E-01  7.20000000E-01  7.20000000E-01  7.90000000E-01
  8.50000000E-01  8.50000000E-01  8.50000000E-01  8.50000000E-01  8.50000000E-01
  8.50000000E-01  8.50000000E-01  8.50000000E-01  8.50000000E-01  8.50000000E-01
  8.50000000E-01  8.50000000E-01
%FLAG IPOL                                                                      
%FORMAT(1I8)                                                                    
       0
