mobley_1905088_GMX.gro created by acpype (v: 2023.10.27) on Thu May 21 00:04:39 2026
 15
    1  MOL   C1    1  -0.002   0.240  -0.001
    1  MOL   C2    2   0.137   0.241  -0.001
    1  MOL   C3    3  -0.070   0.119  -0.001
    1  MOL   C4    4   0.207   0.121   0.000
    1  MOL   C5    5   0.000   0.000   0.000
    1  MOL   C6    6   0.139   0.000   0.000
    1  MOL   C7    7   0.215  -0.129  -0.006
    1  MOL  BR1    8   0.256  -0.200   0.173
    1  MOL   H1    9  -0.057   0.333  -0.002
    1  MOL   H2   10   0.190   0.334  -0.001
    1  MOL   H3   11  -0.178   0.118  -0.001
    1  MOL   H4   12   0.314   0.123   0.000
    1  MOL   H5   13  -0.053  -0.094   0.000
    1  MOL   H6   14   0.159  -0.207  -0.054
    1  MOL   H7   15   0.310  -0.118  -0.054
    9.84400    10.83000     4.55200
