bb.xyz
    15
  -0.0210000   2.4020000  -0.0110000   1.3660000   2.4100000  -0.0060000
  -0.7040000   1.1940000  -0.0060000   2.0660000   1.2140000   0.0000000
   0.0000000   0.0000000   0.0000000   1.3900000   0.0000000   0.0000000
   2.1480000  -1.2890000  -0.0610000   2.5640000  -1.9960000   1.7320000
  -0.5660000   3.3290000  -0.0200000   1.9000000   3.3430000  -0.0110000
  -1.7790000   1.1810000  -0.0110000   3.1430000   1.2260000   0.0020000
  -0.5340000  -0.9350000   0.0010000   1.5870000  -2.0720000  -0.5430000
   3.1040000  -1.1800000  -0.5440000
