; mobley_1905088_GMX_OPLS.top created by acpype (v: 2023.10.27) on Thu May 21 00:04:39 2026

; Include forcefield parameters
#include "ffoplsaa.itp"

; Include mobley_1905088_GMX.itp topology
#include "mobley_1905088_GMX.itp"

; Ligand position restraints
#ifdef POSRES_LIG
#include "posre_mobley_1905088.itp"
#endif

[ system ]
 mobley_1905088

[ molecules ]
; Compound        nmols
 mobley_1905088   1     
