2_iodophenol
    13
   1.8850000  -1.0380000  -0.1090000   0.8180000  -0.4410000   0.5630000
   2.9350000  -1.6040000   0.6140000   0.8010000  -0.4100000   1.9570000
   2.9180000  -1.5730000   2.0080000   1.8510000  -0.9770000   2.6800000
   3.9640000  -2.1380000   2.6770000   1.7760000  -0.9040000   4.7670000
   1.8980000  -1.0610000  -1.1950000   0.0000000  -0.0010000  -0.0000000
   3.7630000  -2.0660000   0.0840000  -0.0420000   0.0600000   2.4580000
   3.8880000  -1.9140000   3.6210000
