mobley_5627459_GMX.gro created by acpype (v: 2023.10.27) on Thu May 21 00:03:51 2026
 8569
    1MOL     C1    1   2.173   2.358   2.273
    1MOL     C2    2   2.349   2.219   2.169
    1MOL     C3    3   2.137   2.110   2.249
    1MOL     C4    4   2.199   2.236   2.188
    1MOL     O1    5   2.111   2.358   2.379
    1MOL     H1    6   2.211   2.454   2.231
    1MOL     H2    7   2.393   2.308   2.123
    1MOL     H3    8   2.371   2.133   2.104
    1MOL     H4    9   2.400   2.203   2.265
    1MOL     H5   10   2.154   2.023   2.185
    1MOL     H6   11   2.028   2.122   2.261
    1MOL     H7   12   2.179   2.089   2.348
    1MOL     H8   13   2.152   2.255   2.090
    2SOL     OW   14   0.230   0.628   0.113
    2SOL    HW1   15   0.137   0.626   0.150
    2SOL    HW2   16   0.231   0.589   0.021
    3SOL     OW   17   0.225   0.275   0.996
    3SOL    HW1   18   0.260   0.258   1.088
    3SOL    HW2   19   0.137   0.230   0.984
    4SOL     OW   20   0.019   0.368   0.647
    4SOL    HW1   21  -0.063   0.411   0.686
    4SOL    HW2   22  -0.009   0.295   0.584
    5SOL     OW   23   0.569   1.275   1.165
    5SOL    HW1   24   0.476   1.268   1.128
    5SOL    HW2   25   0.580   1.364   1.209
    6SOL     OW   26   1.555   1.511   0.703
    6SOL    HW1   27   1.498   1.495   0.784
    6SOL    HW2   28   1.496   1.521   0.623
    7SOL     OW   29   1.135   0.703   0.717
    7SOL    HW1   30   1.192   0.781   0.692
    7SOL    HW2   31   1.075   0.729   0.793
    8SOL     OW   32   1.755   0.607   0.231
    8SOL    HW1   33   1.743   0.594   0.132
    8SOL    HW2   34   1.725   0.526   0.280
    9SOL     OW   35   0.768   1.144   1.023
    9SOL    HW1   36   0.690   1.161   1.083
    9SOL    HW2   37   0.802   1.231   0.987
   10SOL     OW   38   0.850   0.798   1.823
   10SOL    HW1   39   0.846   0.874   1.888
   10SOL    HW2   40   0.872   0.834   1.732
   11SOL     OW   41   0.685   1.012   0.665
   11SOL    HW1   42   0.754   0.996   0.735
   11SOL    HW2   43   0.612   1.069   0.703
   12SOL     OW   44   0.686   1.161   1.803
   12SOL    HW1   45   0.746   1.240   1.817
   12SOL    HW2   46   0.600   1.192   1.762
   13SOL     OW   47   0.335   1.435   1.061
   13SOL    HW1   48   0.257   1.404   1.008
   13SOL    HW2   49   0.393   1.493   1.004
   14SOL     OW   50   1.460   1.505   1.339
   14SOL    HW1   51   1.484   1.599   1.365
   14SOL    HW2   52   1.444   1.451   1.421
   15SOL     OW   53   0.438   0.392   1.499
   15SOL    HW1   54   0.520   0.336   1.508
   15SOL    HW2   55   0.357   0.334   1.503
   16SOL     OW   56   1.603   0.447   0.737
   16SOL    HW1   57   1.529   0.493   0.687
   16SOL    HW2   58   1.654   0.515   0.790
   17SOL     OW   59   0.231   1.713   0.483
   17SOL    HW1   60   0.265   1.790   0.537
   17SOL    HW2   61   0.275   1.713   0.393
   18SOL     OW   62   1.127   1.341   1.690
   18SOL    HW1   63   1.174   1.341   1.778
   18SOL    HW2   64   1.079   1.254   1.679
   19SOL     OW   65   0.230   1.434   0.538
   19SOL    HW1   66   0.204   1.530   0.538
   19SOL    HW2   67   0.159   1.380   0.583
   20SOL     OW   68   0.240   1.091   0.886
   20SOL    HW1   69   0.254   1.007   0.938
   20SOL    HW2   70   0.185   1.155   0.941
   21SOL     OW   71   0.620   1.786   1.439
   21SOL    HW1   72   0.528   1.769   1.474
   21SOL    HW2   73   0.648   1.878   1.465
   22SOL     OW   74   0.606   0.964   0.123
   22SOL    HW1   75   0.613   1.048   0.069
   22SOL    HW2   76   0.652   0.977   0.211
   23SOL     OW   77   1.594   0.114   1.480
   23SOL    HW1   78   1.576   0.181   1.408
   23SOL    HW2   79   1.591   0.160   1.569
   24SOL     OW   80   0.122   0.643   0.563
   24SOL    HW1   81   0.077   0.555   0.580
   24SOL    HW2   82   0.121   0.697   0.647
   25SOL     OW   83   1.842   1.767   0.359
   25SOL    HW1   84   1.896   1.738   0.439
   25SOL    HW2   85   1.872   1.857   0.330
   26SOL     OW   86   0.027   1.596   0.117
   26SOL    HW1   87   0.008   1.500   0.138
   26SOL    HW2   88  -0.006   1.654   0.192
   27SOL     OW   89   1.689   0.922   0.612
   27SOL    HW1   90   1.784   0.893   0.620
   27SOL    HW2   91   1.681   0.987   0.537
   28SOL     OW   92   1.641   1.108   0.432
   28SOL    HW1   93   1.727   1.110   0.380
   28SOL    HW2   94   1.655   1.155   0.520
   29SOL     OW   95   0.113   0.737   1.597
   29SOL    HW1   96   0.201   0.724   1.642
   29SOL    HW2   97   0.100   0.834   1.575
   30SOL     OW   98   0.613   1.365   0.726
   30SOL    HW1   99   0.564   1.278   0.735
   30SOL    HW2  100   0.590   1.408   0.639
   31SOL     OW  101   1.293   1.228   1.423
   31SOL    HW1  102   1.330   1.155   1.365
   31SOL    HW2  103   1.345   1.233   1.508
   32SOL     OW  104   0.809   0.004   0.502
   32SOL    HW1  105   0.849   0.095   0.493
   32SOL    HW2  106   0.709   0.012   0.508
   33SOL     OW  107   0.197   0.976   1.264
   33SOL    HW1  108   0.286   0.931   1.250
   33SOL    HW2  109   0.124   0.911   1.245
   34SOL     OW  110   1.525   0.999   0.190
   34SOL    HW1  111   1.462   0.923   0.203
   34SOL    HW2  112   1.573   1.017   0.276
   35SOL     OW  113   1.187   1.792   1.616
   35SOL    HW1  114   1.211   1.852   1.540
   35SOL    HW2  115   1.194   1.697   1.586
   36SOL     OW  116   0.317   0.251   1.801
   36SOL    HW1  117   0.388   0.322   1.807
   36SOL    HW2  118   0.229   0.290   1.829
   37SOL     OW  119   1.466   1.417   0.953
   37SOL    HW1  120   1.407   1.423   1.033
   37SOL    HW2  121   1.451   1.329   0.907
   38SOL     OW  122   1.667   1.714   0.572
   38SOL    HW1  123   1.626   1.691   0.484
   38SOL    HW2  124   1.649   1.640   0.637
   39SOL     OW  125   0.598   0.729   0.270
   39SOL    HW1  126   0.622   0.798   0.202
   39SOL    HW2  127   0.520   0.762   0.324
   40SOL     OW  128   1.281   0.345   0.944
   40SOL    HW1  129   1.195   0.295   0.931
   40SOL    HW2  130   1.343   0.291   1.000
   41SOL     OW  131   1.576   1.662   0.307
   41SOL    HW1  132   1.665   1.708   0.310
   41SOL    HW2  133   1.555   1.638   0.212
   42SOL     OW  134   0.807   0.605   1.465
   42SOL    HW1  135   0.760   0.602   1.554
   42SOL    HW2  136   0.756   0.550   1.399
   43SOL     OW  137   1.394   0.469   1.674
   43SOL    HW1  138   1.374   0.512   1.762
   43SOL    HW2  139   1.472   0.407   1.683
   44SOL     OW  140   0.973   0.890   1.572
   44SOL    HW1  141   1.019   0.806   1.543
   44SOL    HW2  142   0.917   0.924   1.497
   45SOL     OW  143   0.991   0.410   1.242
   45SOL    HW1  144   0.914   0.444   1.296
   45SOL    HW2  145   0.957   0.359   1.163
   46SOL     OW  146   1.041   0.701   0.429
   46SOL    HW1  147   1.067   0.697   0.525
   46SOL    HW2  148   0.956   0.650   0.415
   47SOL     OW  149   0.076   0.811   0.789
   47SOL    HW1  150   0.175   0.799   0.798
   47SOL    HW2  151   0.052   0.906   0.810
   48SOL     OW  152   0.130   1.821   1.571
   48SOL    HW1  153   0.120   1.806   1.670
   48SOL    HW2  154   0.044   1.857   1.535
   49SOL     OW  155   0.865   0.348   0.195
   49SOL    HW1  156   0.924   0.411   0.146
   49SOL    HW2  157   0.884   0.254   0.166
   50SOL     OW  158   1.719   0.585   1.831
   50SOL    HW1  159   1.693   0.674   1.795
   50SOL    HW2  160   1.717   0.517   1.758
   51SOL     OW  161   1.362   1.144   0.545
   51SOL    HW1  162   1.445   1.115   0.497
   51SOL    HW2  163   1.313   1.211   0.489
   52SOL     OW  164   0.550   0.196   0.885
   52SOL    HW1  165   0.545   0.191   0.985
   52SOL    HW2  166   0.552   0.292   0.856
   53SOL     OW  167   1.008   1.456   0.477
   53SOL    HW1  168   0.962   1.528   0.425
   53SOL    HW2  169   1.004   1.476   0.575
   54SOL     OW  170   0.351   1.801   0.853
   54SOL    HW1  171   0.401   1.715   0.859
   54SOL    HW2  172   0.416   1.878   0.850
   55SOL     OW  173   1.795   1.066   0.873
   55SOL    HW1  174   1.733   1.051   0.797
   55SOL    HW2  175   1.743   1.077   0.958
   56SOL     OW  176   1.227   1.550   1.506
   56SOL    HW1  177   1.233   1.473   1.570
   56SOL    HW2  178   1.175   1.524   1.426
   57SOL     OW  179   0.321   0.943   0.242
   57SOL    HW1  180   0.403   0.982   0.200
   57SOL    HW2  181   0.294   0.861   0.193
   58SOL     OW  182   1.458   0.735   0.728
   58SOL    HW1  183   1.453   0.670   0.803
   58SOL    HW2  184   1.538   0.794   0.741
   59SOL     OW  185   0.461   1.266   1.727
   59SOL    HW1  186   0.411   1.267   1.641
   59SOL    HW2  187   0.398   1.248   1.803
   60SOL     OW  188   1.111   1.776   0.237
   60SOL    HW1  189   1.051   1.714   0.287
   60SOL    HW2  190   1.142   1.732   0.152
   61SOL     OW  191   0.202   0.285   1.498
   61SOL    HW1  192   0.122   0.345   1.485
   61SOL    HW2  193   0.192   0.236   1.584
   62SOL     OW  194   1.632   1.377   0.081
   62SOL    HW1  195   1.600   1.471   0.071
   62SOL    HW2  196   1.556   1.314   0.069
   63SOL     OW  197   0.464   1.743   0.323
   63SOL    HW1  198   0.497   1.782   0.409
   63SOL    HW2  199   0.540   1.736   0.258
   64SOL     OW  200   1.400   0.107   0.426
   64SOL    HW1  201   1.376   0.070   0.336
   64SOL    HW2  202   1.499   0.123   0.430
   65SOL     OW  203   0.249   1.785   1.241
   65SOL    HW1  204   0.306   1.720   1.291
   65SOL    HW2  205   0.233   1.752   1.148
   66SOL     OW  206   0.940   1.698   0.904
   66SOL    HW1  207   1.020   1.641   0.925
   66SOL    HW2  208   0.891   1.658   0.827
   67SOL     OW  209   0.382   0.700   0.480
   67SOL    HW1  210   0.427   0.610   0.477
   67SOL    HW2  211   0.288   0.689   0.513
   68SOL     OW  212   1.547   0.222   1.729
   68SOL    HW1  213   1.542   0.259   1.821
   68SOL    HW2  214   1.475   0.153   1.717
   69SOL     OW  215   0.614   0.122   0.117
   69SOL    HW1  216   0.712   0.100   0.124
   69SOL    HW2  217   0.583   0.105   0.024
   70SOL     OW  218   0.781   0.264   1.749
   70SOL    HW1  219   0.848   0.203   1.792
   70SOL    HW2  220   0.708   0.283   1.814
   71SOL     OW  221   0.888   1.514   1.195
   71SOL    HW1  222   0.865   1.489   1.101
   71SOL    HW2  223   0.949   1.445   1.234
   72SOL     OW  224   1.351   0.590   1.433
   72SOL    HW1  225   1.379   0.547   1.518
   72SOL    HW2  226   1.376   0.686   1.434
   73SOL     OW  227   0.803   1.402   0.924
   73SOL    HW1  228   0.893   1.416   0.882
   73SOL    HW2  229   0.732   1.404   0.853
   74SOL     OW  230   0.922   0.503   0.899
   74SOL    HW1  231   0.897   0.494   0.803
   74SOL    HW2  232   0.970   0.421   0.930
   75SOL     OW  233   0.539   0.064   0.512
   75SOL    HW1  234   0.458   0.065   0.570
   75SOL    HW2  235   0.542   0.147   0.457
   76SOL     OW  236   1.434   1.188   0.041
   76SOL    HW1  237   1.466   1.112   0.098
   76SOL    HW2  238   1.342   1.215   0.071
   77SOL     OW  239   0.297   0.035   0.171
   77SOL    HW1  240   0.346   0.119   0.150
   77SOL    HW2  241   0.359  -0.030   0.216
   78SOL     OW  242   0.935   0.236   0.480
   78SOL    HW1  243   0.887   0.277   0.402
   78SOL    HW2  244   1.034   0.234   0.461
   79SOL     OW  245   1.076   0.683   1.464
   79SOL    HW1  246   0.996   0.622   1.467
   79SOL    HW2  247   1.157   0.630   1.440
   80SOL     OW  248   1.227   1.570   0.793
   80SOL    HW1  249   1.248   1.644   0.728
   80SOL    HW2  250   1.295   1.570   0.866
   81SOL     OW  251   0.459   1.152   0.741
   81SOL    HW1  252   0.388   1.125   0.806
   81SOL    HW2  253   0.433   1.124   0.648
   82SOL     OW  254   1.271   1.797   0.591
   82SOL    HW1  255   1.315   1.861   0.527
   82SOL    HW2  256   1.221   1.849   0.661
   83SOL     OW  257   1.032   0.549   0.016
   83SOL    HW1  258   0.991   0.631  -0.023
   83SOL    HW2  259   1.096   0.575   0.089
   84SOL     OW  260   0.078   0.556   1.386
   84SOL    HW1  261   0.170   0.555   1.345
   84SOL    HW2  262   0.072   0.630   1.453
   85SOL     OW  263   0.561   0.222   1.147
   85SOL    HW1  264   0.599   0.138   1.184
   85SOL    HW2  265   0.473   0.241   1.191
   86SOL     OW  266   0.866   0.454   0.642
   86SOL    HW1  267   0.834   0.526   0.580
   86SOL    HW2  268   0.890   0.373   0.589
   87SOL     OW  269   1.017   0.039   0.753
   87SOL    HW1  270   0.945   0.044   0.684
   87SOL    HW2  271   0.993  -0.030   0.822
   88SOL     OW  272   1.429   1.173   0.867
   88SOL    HW1  273   1.374   1.089   0.860
   88SOL    HW2  274   1.455   1.202   0.775
   89SOL     OW  275   1.466   0.590   0.992
   89SOL    HW1  276   1.436   0.495   0.999
   89SOL    HW2  277   1.539   0.606   1.058
   90SOL     OW  278   1.857   0.833   0.377
   90SOL    HW1  279   1.899   0.769   0.441
   90SOL    HW2  280   1.819   0.782   0.299
   91SOL     OW  281   0.488   1.385   0.174
   91SOL    HW1  282   0.401   1.370   0.221
   91SOL    HW2  283   0.471   1.411   0.079
   92SOL     OW  284   1.664   1.280   0.657
   92SOL    HW1  285   1.763   1.288   0.671
   92SOL    HW2  286   1.619   1.364   0.688
   93SOL     OW  287   1.390   0.575   0.078
   93SOL    HW1  288   1.336   0.554   0.159
   93SOL    HW2  289   1.481   0.534   0.087
   94SOL     OW  290   0.527   0.256   0.328
   94SOL    HW1  291   0.554   0.197   0.253
   94SOL    HW2  292   0.527   0.351   0.297
   95SOL     OW  293   1.754   1.223   1.588
   95SOL    HW1  294   1.845   1.184   1.575
   95SOL    HW2  295   1.762   1.319   1.612
   96SOL     OW  296   1.064   1.347   1.340
   96SOL    HW1  297   0.984   1.324   1.395
   96SOL    HW2  298   1.147   1.321   1.389
   97SOL     OW  299   1.592   1.629   1.625
   97SOL    HW1  300   1.619   1.663   1.535
   97SOL    HW2  301   1.671   1.591   1.671
   98SOL     OW  302   1.111   1.195   1.100
   98SOL    HW1  303   1.071   1.239   1.181
   98SOL    HW2  304   1.070   1.232   1.017
   99SOL     OW  305   1.638   1.099   1.079
   99SOL    HW1  306   1.643   1.180   1.138
   99SOL    HW2  307   1.552   1.101   1.028
  100SOL     OW  308   0.915   0.089   1.402
  100SOL    HW1  309   0.940   0.069   1.307
  100SOL    HW2  310   0.987   0.145   1.444
  101SOL     OW  311   0.980   1.116   1.719
  101SOL    HW1  312   0.881   1.122   1.729
  101SOL    HW2  313   1.003   1.036   1.663
  102SOL     OW  314   0.705   1.050   0.368
  102SOL    HW1  315   0.691   1.057   0.467
  102SOL    HW2  316   0.789   0.999   0.350
  103SOL     OW  317   0.410   0.813   1.251
  103SOL    HW1  318   0.496   0.825   1.301
  103SOL    HW2  319   0.368   0.726   1.278
  104SOL     OW  320   1.274   0.386   1.262
  104SOL    HW1  321   1.295   0.460   1.326
  104SOL    HW2  322   1.185   0.403   1.219
  105SOL     OW  323   0.064   1.564   1.331
  105SOL    HW1  324   0.018   1.646   1.297
  105SOL    HW2  325   0.162   1.583   1.340
  106SOL     OW  326   0.367   1.100   0.501
  106SOL    HW1  327   0.360   1.183   0.445
  106SOL    HW2  328   0.371   1.020   0.441
  107SOL     OW  329   0.566   0.537   0.865
  107SOL    HW1  330   0.578   0.603   0.791
  107SOL    HW2  331   0.612   0.571   0.948
  108SOL     OW  332   1.252   1.348   0.388
  108SOL    HW1  333   1.302   1.425   0.428
  108SOL    HW2  334   1.157   1.350   0.420
  109SOL     OW  335   1.272   1.445   1.142
  109SOL    HW1  336   1.319   1.458   1.229
  109SOL    HW2  337   1.206   1.371   1.151
  110SOL     OW  338   1.582   0.639   0.472
  110SOL    HW1  339   1.551   0.700   0.545
  110SOL    HW2  340   1.632   0.691   0.403
  111SOL     OW  341   0.354   1.510   1.329
  111SOL    HW1  342   0.333   1.466   1.242
  111SOL    HW2  343   0.451   1.536   1.332
  112SOL     OW  344   0.402   0.751   1.598
  112SOL    HW1  345   0.470   0.806   1.551
  112SOL    HW2  346   0.442   0.663   1.625
  113SOL     OW  347   1.587   0.779   1.670
  113SOL    HW1  348   1.495   0.817   1.665
  113SOL    HW2  349   1.647   0.826   1.605
  114SOL     OW  350   1.013   0.105   1.770
  114SOL    HW1  351   1.019   0.190   1.718
  114SOL    HW2  352   1.045   0.029   1.713
  115SOL     OW  353   0.504   0.050   1.740
  115SOL    HW1  354   0.462  -0.007   1.670
  115SOL    HW2  355   0.438   0.119   1.772
  116SOL     OW  356   0.573   0.870   1.029
  116SOL    HW1  357   0.617   0.959   1.020
  116SOL    HW2  358   0.510   0.870   1.106
  117SOL     OW  359   1.360   0.862   1.045
  117SOL    HW1  360   1.285   0.862   0.979
  117SOL    HW2  361   1.397   0.770   1.054
  118SOL     OW  362   1.209   0.525   0.275
  118SOL    HW1  363   1.222   0.441   0.329
  118SOL    HW2  364   1.180   0.599   0.335
  119SOL     OW  365   0.307   0.213   1.231
  119SOL    HW1  366   0.284   0.250   1.321
  119SOL    HW2  367   0.277   0.118   1.225
  120SOL     OW  368   0.037   1.310   1.282
  120SOL    HW1  369   0.090   1.261   1.350
  120SOL    HW2  370   0.059   1.408   1.287
  121SOL     OW  371   0.732   0.634   1.064
  121SOL    HW1  372   0.791   0.608   0.988
  121SOL    HW2  373   0.704   0.730   1.053
  122SOL     OW  374   1.728   0.935   1.854
  122SOL    HW1  375   1.682   0.928   1.765
  122SOL    HW2  376   1.666   0.979   1.920
  123SOL     OW  377   0.307   0.063   0.618
  123SOL    HW1  378   0.296   0.157   0.651
  123SOL    HW2  379   0.302   0.000   0.695
  124SOL     OW  380   1.622   0.367   0.374
  124SOL    HW1  381   1.624   0.291   0.438
  124SOL    HW2  382   1.574   0.444   0.414
  125SOL     OW  383   1.023   0.766   0.966
  125SOL    HW1  384   1.038   0.787   1.062
  125SOL    HW2  385   0.993   0.671   0.957
  126SOL     OW  386   0.980   1.573   1.700
  126SOL    HW1  387   0.960   1.617   1.612
  126SOL    HW2  388   1.019   1.482   1.684
  127SOL     OW  389   1.859   1.518   1.605
  127SOL    HW1  390   1.873   1.545   1.510
  127SOL    HW2  391   1.942   1.540   1.658
  128SOL     OW  392   0.350   0.898   1.804
  128SOL    HW1  393   0.426   0.942   1.852
  128SOL    HW2  394   0.385   0.851   1.722
  129SOL     OW  395   1.540   0.274   0.125
  129SOL    HW1  396   1.479   0.199   0.148
  129SOL    HW2  397   1.562   0.326   0.208
  130SOL     OW  398   1.303   0.838   0.042
  130SOL    HW1  399   1.337   0.745   0.057
  130SOL    HW2  400   1.321   0.865  -0.053
  131SOL     OW  401   1.068   1.333   0.849
  131SOL    HW1  402   1.075   1.249   0.794
  131SOL    HW2  403   1.130   1.402   0.813
  132SOL     OW  404   0.319   0.810   0.949
  132SOL    HW1  405   0.412   0.846   0.954
  132SOL    HW2  406   0.313   0.725   1.001
  133SOL     OW  407   0.339   0.509   1.006
  133SOL    HW1  408   0.287   0.426   0.989
  133SOL    HW2  409   0.416   0.514   0.942
  134SOL     OW  410   1.138   0.380   1.678
  134SOL    HW1  411   1.093   0.443   1.742
  134SOL    HW2  412   1.231   0.411   1.661
  135SOL     OW  413   1.160   0.207   1.477
  135SOL    HW1  414   1.160   0.271   1.554
  135SOL    HW2  415   1.188   0.255   1.394
  136SOL     OW  416   0.008   1.326   0.200
  136SOL    HW1  417  -0.085   1.347   0.169
  136SOL    HW2  418   0.018   1.227   0.213
  137SOL     OW  419   0.088   1.801   0.927
  137SOL    HW1  420   0.046   1.715   0.900
  137SOL    HW2  421   0.182   1.804   0.893
  138SOL     OW  422   0.504   1.568   0.910
  138SOL    HW1  423   0.570   1.642   0.919
  138SOL    HW2  424   0.548   1.489   0.868
  139SOL     OW  425   1.002   0.796   1.238
  139SOL    HW1  426   1.043   0.764   1.324
  139SOL    HW2  427   0.906   0.769   1.235
  140SOL     OW  428   0.040   0.544   1.114
  140SOL    HW1  429   0.125   0.511   1.073
  140SOL    HW2  430   0.053   0.559   1.212
  141SOL     OW  431   0.189   0.520   1.722
  141SOL    HW1  432   0.248   0.480   1.652
  141SOL    HW2  433   0.131   0.591   1.681
  142SOL     OW  434   1.369   0.950   1.660
  142SOL    HW1  435   1.408   1.039   1.680
  142SOL    HW2  436   1.379   0.930   1.563
  143SOL     OW  437   0.815   0.572   0.325
  143SOL    HW1  438   0.822   0.483   0.279
  143SOL    HW2  439   0.721   0.606   0.317
  144SOL     OW  440   1.657   0.604   1.206
  144SOL    HW1  441   1.619   0.535   1.268
  144SOL    HW2  442   1.739   0.568   1.162
  145SOL     OW  443   0.252   1.564   1.744
  145SOL    HW1  444   0.222   1.621   1.820
  145SOL    HW2  445   0.245   1.467   1.770
  146SOL     OW  446   0.671   0.464   1.269
  146SOL    HW1  447   0.637   0.375   1.239
  146SOL    HW2  448   0.697   0.518   1.189
  147SOL     OW  449   0.930   1.678   1.465
  147SOL    HW1  450   0.906   1.660   1.370
  147SOL    HW2  451   0.960   1.772   1.475
  148SOL     OW  452   0.473   0.500   0.191
  148SOL    HW1  453   0.534   0.580   0.195
  148SOL    HW2  454   0.378   0.531   0.198
  149SOL     OW  455   0.159   1.137   1.466
  149SOL    HW1  456   0.181   1.076   1.542
  149SOL    HW2  457   0.169   1.088   1.380
  150SOL     OW  458   1.347   1.059   1.234
  150SOL    HW1  459   1.371   0.996   1.160
  150SOL    HW2  460   1.257   1.099   1.216
  151SOL     OW  461   1.302   0.855   0.309
  151SOL    HW1  462   1.216   0.824   0.351
  151SOL    HW2  463   1.298   0.841   0.210
  152SOL     OW  464   1.759   1.747   1.154
  152SOL    HW1  465   1.820   1.777   1.081
  152SOL    HW2  466   1.721   1.658   1.132
  153SOL     OW  467   1.252   1.731   1.128
  153SOL    HW1  468   1.336   1.736   1.074
  153SOL    HW2  469   1.229   1.635   1.146
  154SOL     OW  470   0.083   1.258   1.022
  154SOL    HW1  471   0.078   1.257   1.122
  154SOL    HW2  472   0.000   1.217   0.984
  155SOL     OW  473   0.688   1.662   1.716
  155SOL    HW1  474   0.632   1.743   1.725
  155SOL    HW2  475   0.740   1.666   1.630
  156SOL     OW  476   0.903   0.086   0.133
  156SOL    HW1  477   0.954   0.087   0.047
  156SOL    HW2  478   0.959   0.044   0.204
  157SOL     OW  479   1.726   0.135   0.523
  157SOL    HW1  480   1.799   0.118   0.456
  157SOL    HW2  481   1.695   0.048   0.561
  158SOL     OW  482   1.388   1.573   0.477
  158SOL    HW1  483   1.455   1.585   0.403
  158SOL    HW2  484   1.348   1.662   0.500
  159SOL     OW  485   0.130   1.794   1.851
  159SOL    HW1  486   0.089   1.720   1.904
  159SOL    HW2  487   0.194   1.845   1.909
  160SOL     OW  488   1.280   0.927   0.672
  160SOL    HW1  489   1.340   0.846   0.674
  160SOL    HW2  490   1.320   0.996   0.612
  161SOL     OW  491   0.830   1.273   1.422
  161SOL    HW1  492   0.825   1.306   1.517
  161SOL    HW2  493   0.744   1.292   1.376
  162SOL     OW  494   0.672   1.616   0.154
  162SOL    HW1  495   0.681   1.626   0.055
  162SOL    HW2  496   0.632   1.527   0.175
  163SOL     OW  497   1.650   1.720   1.394
  163SOL    HW1  498   1.703   1.730   1.310
  163SOL    HW2  499   1.623   1.810   1.428
  164SOL     OW  500   1.841   0.175   0.963
  164SOL    HW1  501   1.880   0.090   0.927
  164SOL    HW2  502   1.743   0.177   0.944
  165SOL     OW  503   0.263   0.326   0.720
  165SOL    HW1  504   0.184   0.377   0.686
  165SOL    HW2  505   0.254   0.311   0.818
  166SOL     OW  506   1.194   1.612   0.031
  166SOL    HW1  507   1.200   1.519   0.068
  166SOL    HW2  508   1.135   1.612  -0.049
  167SOL     OW  509   0.822   1.002   1.372
  167SOL    HW1  510   0.862   1.001   1.280
  167SOL    HW2  511   0.832   1.094   1.412
  168SOL     OW  512   0.916   0.910   0.291
  168SOL    HW1  513   0.979   0.948   0.223
  168SOL    HW2  514   0.956   0.827   0.330
  169SOL     OW  515   1.504   1.607   0.044
  169SOL    HW1  516   1.412   1.644   0.051
  169SOL    HW2  517   1.542   1.627  -0.046
  170SOL     OW  518   0.372   1.288   1.490
  170SOL    HW1  519   0.359   1.381   1.456
  170SOL    HW2  520   0.288   1.236   1.477
  171SOL     OW  521   1.614   1.292   1.289
  171SOL    HW1  522   1.674   1.295   1.369
  171SOL    HW2  523   1.539   1.356   1.302
  172SOL     OW  524   1.039   1.098   0.696
  172SOL    HW1  525   0.969   1.051   0.750
  172SOL    HW2  526   1.098   1.030   0.653
  173SOL     OW  527   1.014   0.236   0.971
  173SOL    HW1  528   1.006   0.200   0.878
  173SOL    HW2  529   1.012   0.160   1.036
  174SOL     OW  530   0.590   1.487   0.491
  174SOL    HW1  531   0.632   1.429   0.421
  174SOL    HW2  532   0.546   1.566   0.447
  175SOL     OW  533   1.709   0.385   1.381
  175SOL    HW1  534   1.782   0.454   1.385
  175SOL    HW2  535   1.737   0.310   1.322
  176SOL     OW  536   0.255   1.348   0.290
  176SOL    HW1  537   0.159   1.349   0.263
  176SOL    HW2  538   0.267   1.401   0.374
  177SOL     OW  539   0.105   1.013   1.726
  177SOL    HW1  540   0.028   0.980   1.780
  177SOL    HW2  541   0.190   0.983   1.768
  178SOL     OW  542   0.672   0.203   1.489
  178SOL    HW1  543   0.762   0.187   1.449
  178SOL    HW2  544   0.680   0.208   1.588
  179SOL     OW  545   0.075   0.345   0.033
  179SOL    HW1  546  -0.017   0.317   0.004
  179SOL    HW2  547   0.106   0.422  -0.023
  180SOL     OW  548   1.440   0.856   1.398
  180SOL    HW1  549   1.383   0.908   1.335
  180SOL    HW2  550   1.536   0.868   1.374
  181SOL     OW  551   0.072   0.166   0.318
  181SOL    HW1  552   0.055   0.249   0.264
  181SOL    HW2  553   0.162   0.129   0.296
  182SOL     OW  554   1.183   1.335   0.119
  182SOL    HW1  555   1.084   1.324   0.121
  182SOL    HW2  556   1.217   1.350   0.212
  183SOL     OW  557   0.613   0.842   1.431
  183SOL    HW1  558   0.669   0.923   1.414
  183SOL    HW2  559   0.672   0.762   1.434
  184SOL     OW  560   1.493   1.767   0.959
  184SOL    HW1  561   1.526   1.831   0.890
  184SOL    HW2  562   1.559   1.761   1.034
  185SOL     OW  563   0.716   0.565   1.708
  185SOL    HW1  564   0.735   0.630   1.782
  185SOL    HW2  565   0.776   0.485   1.717
  186SOL     OW  566   1.450   1.220   1.633
  186SOL    HW1  567   1.441   1.210   1.732
  186SOL    HW2  568   1.546   1.213   1.607
  187SOL     OW  569   0.390   1.741   1.560
  187SOL    HW1  570   0.299   1.782   1.558
  187SOL    HW2  571   0.383   1.647   1.592
  188SOL     OW  572   1.674   0.883   1.254
  188SOL    HW1  573   1.647   0.794   1.217
  188SOL    HW2  574   1.675   0.951   1.181
  189SOL     OW  575   1.225   0.325   0.449
  189SOL    HW1  576   1.290   0.251   0.438
  189SOL    HW2  577   1.245   0.375   0.533
  190SOL     OW  578   0.594   0.745   0.652
  190SOL    HW1  579   0.644   0.830   0.633
  190SOL    HW2  580   0.506   0.747   0.604
  191SOL     OW  581   1.777   0.342   1.642
  191SOL    HW1  582   1.760   0.373   1.548
  191SOL    HW2  583   1.693   0.305   1.680
  192SOL     OW  584   1.730   0.934   1.517
  192SOL    HW1  585   1.768   1.025   1.532
  192SOL    HW2  586   1.722   0.917   1.418
  193SOL     OW  587   0.859   1.374   0.016
  193SOL    HW1  588   0.813   1.389   0.104
  193SOL    HW2  589   0.903   1.459  -0.014
  194SOL     OW  590   0.661   1.790   0.953
  194SOL    HW1  591   0.615   1.878   0.940
  194SOL    HW2  592   0.760   1.802   0.946
  195SOL     OW  593   0.859   0.956   0.861
  195SOL    HW1  594   0.913   0.887   0.909
  195SOL    HW2  595   0.827   1.025   0.927
  196SOL     OW  596   1.083   0.984   0.087
  196SOL    HW1  597   1.060   1.037   0.005
  196SOL    HW2  598   1.164   0.928   0.068
  197SOL     OW  599   1.861   1.569   0.851
  197SOL    HW1  600   1.790   1.557   0.781
  197SOL    HW2  601   1.862   1.490   0.911
  198SOL     OW  602   0.221   1.314   1.844
  198SOL    HW1  603   0.156   1.241   1.823
  198SOL    HW2  604   0.225   1.328   1.942
  199SOL     OW  605   0.079   1.240   0.653
  199SOL    HW1  606   0.078   1.193   0.741
  199SOL    HW2  607   0.161   1.212   0.602
  200SOL     OW  608   0.672   1.391   1.624
  200SOL    HW1  609   0.594   1.341   1.662
  200SOL    HW2  610   0.669   1.486   1.655
  201SOL     OW  611   1.824   0.192   1.227
  201SOL    HW1  612   1.820   0.102   1.271
  201SOL    HW2  613   1.827   0.181   1.128
  202SOL     OW  614   0.428   0.424   0.520
  202SOL    HW1  615   0.458   0.352   0.458
  202SOL    HW2  616   0.389   0.384   0.603
  203SOL     OW  617   1.705   1.487   1.104
  203SOL    HW1  618   1.612   1.462   1.077
  203SOL    HW2  619   1.731   1.437   1.186
  204SOL     OW  620   0.317   0.547   1.280
  204SOL    HW1  621   0.355   0.488   1.352
  204SOL    HW2  622   0.357   0.521   1.192
  205SOL     OW  623   0.812   1.586   0.687
  205SOL    HW1  624   0.844   1.596   0.593
  205SOL    HW2  625   0.733   1.524   0.689
  206SOL     OW  626   1.424   0.214   1.112
  206SOL    HW1  627   1.476   0.149   1.167
  206SOL    HW2  628   1.375   0.277   1.173
  207SOL     OW  629   1.001   0.034   1.154
  207SOL    HW1  630   0.938  -0.038   1.123
  207SOL    HW2  631   1.094  -0.002   1.154
  208SOL     OW  632   0.770   1.330   0.301
  208SOL    HW1  633   0.724   1.243   0.318
  208SOL    HW2  634   0.861   1.327   0.342
  209SOL     OW  635   0.618   1.567   1.284
  209SOL    HW1  636   0.613   1.649   1.341
  209SOL    HW2  637   0.707   1.564   1.239
  210SOL     OW  638   1.352   0.052   0.168
  210SOL    HW1  639   1.387   0.011   0.084
  210SOL    HW2  640   1.262   0.014   0.188
  211SOL     OW  641   1.300   0.453   0.691
  211SOL    HW1  642   1.241   0.533   0.695
  211SOL    HW2  643   1.315   0.418   0.784
  212SOL     OW  644   1.593   0.221   0.882
  212SOL    HW1  645   1.509   0.220   0.936
  212SOL    HW2  646   1.595   0.304   0.826
  213SOL     OW  647   0.039   1.077   0.300
  213SOL    HW1  648   0.138   1.066   0.291
  213SOL    HW2  649  -0.001   0.991   0.332
  214SOL     OW  650   0.875   1.646   0.337
  214SOL    HW1  651   0.798   1.611   0.283
  214SOL    HW2  652   0.843   1.717   0.399
  215SOL     OW  653   0.230   0.628   1.975
  215SOL    HW1  654   0.137   0.626   2.012
  215SOL    HW2  655   0.231   0.589   1.883
  216SOL     OW  656   0.225   0.275   2.858
  216SOL    HW1  657   0.260   0.258   2.950
  216SOL    HW2  658   0.137   0.230   2.846
  217SOL     OW  659   0.019   0.368   2.509
  217SOL    HW1  660  -0.063   0.411   2.548
  217SOL    HW2  661  -0.009   0.295   2.446
  218SOL     OW  662   0.569   1.275   3.027
  218SOL    HW1  663   0.476   1.268   2.990
  218SOL    HW2  664   0.580   1.364   3.071
  219SOL     OW  665   1.555   1.511   2.565
  219SOL    HW1  666   1.498   1.495   2.646
  219SOL    HW2  667   1.496   1.521   2.485
  220SOL     OW  668   1.135   0.703   2.579
  220SOL    HW1  669   1.192   0.781   2.554
  220SOL    HW2  670   1.075   0.729   2.655
  221SOL     OW  671   1.755   0.607   2.093
  221SOL    HW1  672   1.743   0.594   1.994
  221SOL    HW2  673   1.725   0.526   2.142
  222SOL     OW  674   0.768   1.144   2.885
  222SOL    HW1  675   0.690   1.161   2.945
  222SOL    HW2  676   0.802   1.231   2.849
  223SOL     OW  677   0.850   0.798   3.685
  223SOL    HW1  678   0.846   0.874   3.750
  223SOL    HW2  679   0.872   0.834   3.594
  224SOL     OW  680   0.685   1.012   2.527
  224SOL    HW1  681   0.754   0.996   2.597
  224SOL    HW2  682   0.612   1.069   2.565
  225SOL     OW  683   0.686   1.161   3.665
  225SOL    HW1  684   0.746   1.240   3.679
  225SOL    HW2  685   0.600   1.192   3.624
  226SOL     OW  686   0.335   1.435   2.923
  226SOL    HW1  687   0.257   1.404   2.870
  226SOL    HW2  688   0.393   1.493   2.866
  227SOL     OW  689   1.460   1.505   3.201
  227SOL    HW1  690   1.484   1.599   3.227
  227SOL    HW2  691   1.444   1.451   3.283
  228SOL     OW  692   0.438   0.392   3.361
  228SOL    HW1  693   0.520   0.336   3.370
  228SOL    HW2  694   0.357   0.334   3.365
  229SOL     OW  695   1.603   0.447   2.599
  229SOL    HW1  696   1.529   0.493   2.549
  229SOL    HW2  697   1.654   0.515   2.652
  230SOL     OW  698   0.231   1.713   2.345
  230SOL    HW1  699   0.265   1.790   2.399
  230SOL    HW2  700   0.275   1.713   2.255
  231SOL     OW  701   1.127   1.341   3.552
  231SOL    HW1  702   1.174   1.341   3.640
  231SOL    HW2  703   1.079   1.254   3.541
  232SOL     OW  704   0.230   1.434   2.400
  232SOL    HW1  705   0.204   1.530   2.400
  232SOL    HW2  706   0.159   1.380   2.445
  233SOL     OW  707   0.240   1.091   2.748
  233SOL    HW1  708   0.254   1.007   2.800
  233SOL    HW2  709   0.185   1.155   2.803
  234SOL     OW  710   0.620   1.786   3.301
  234SOL    HW1  711   0.528   1.769   3.336
  234SOL    HW2  712   0.648   1.878   3.327
  235SOL     OW  713   0.606   0.964   1.985
  235SOL    HW1  714   0.613   1.048   1.931
  235SOL    HW2  715   0.652   0.977   2.073
  236SOL     OW  716   1.594   0.114   3.342
  236SOL    HW1  717   1.576   0.181   3.270
  236SOL    HW2  718   1.591   0.160   3.431
  237SOL     OW  719   0.122   0.643   2.425
  237SOL    HW1  720   0.077   0.555   2.442
  237SOL    HW2  721   0.121   0.697   2.509
  238SOL     OW  722   1.842   1.767   2.221
  238SOL    HW1  723   1.896   1.738   2.301
  238SOL    HW2  724   1.872   1.857   2.192
  239SOL     OW  725   0.027   1.596   1.979
  239SOL    HW1  726   0.008   1.500   2.000
  239SOL    HW2  727  -0.006   1.654   2.054
  240SOL     OW  728   1.689   0.922   2.474
  240SOL    HW1  729   1.784   0.893   2.482
  240SOL    HW2  730   1.681   0.987   2.399
  241SOL     OW  731   1.641   1.108   2.294
  241SOL    HW1  732   1.727   1.110   2.242
  241SOL    HW2  733   1.655   1.155   2.382
  242SOL     OW  734   0.113   0.737   3.459
  242SOL    HW1  735   0.201   0.724   3.504
  242SOL    HW2  736   0.100   0.834   3.437
  243SOL     OW  737   0.613   1.365   2.588
  243SOL    HW1  738   0.564   1.278   2.597
  243SOL    HW2  739   0.590   1.408   2.501
  244SOL     OW  740   1.293   1.228   3.285
  244SOL    HW1  741   1.330   1.155   3.227
  244SOL    HW2  742   1.345   1.233   3.370
  245SOL     OW  743   0.809   0.004   2.364
  245SOL    HW1  744   0.849   0.095   2.355
  245SOL    HW2  745   0.709   0.012   2.370
  246SOL     OW  746   0.197   0.976   3.126
  246SOL    HW1  747   0.286   0.931   3.112
  246SOL    HW2  748   0.124   0.911   3.107
  247SOL     OW  749   1.525   0.999   2.052
  247SOL    HW1  750   1.462   0.923   2.065
  247SOL    HW2  751   1.573   1.017   2.138
  248SOL     OW  752   1.187   1.792   3.478
  248SOL    HW1  753   1.211   1.852   3.402
  248SOL    HW2  754   1.194   1.697   3.448
  249SOL     OW  755   0.317   0.251   3.663
  249SOL    HW1  756   0.388   0.322   3.669
  249SOL    HW2  757   0.229   0.290   3.691
  250SOL     OW  758   1.466   1.417   2.815
  250SOL    HW1  759   1.407   1.423   2.895
  250SOL    HW2  760   1.451   1.329   2.769
  251SOL     OW  761   1.667   1.714   2.434
  251SOL    HW1  762   1.626   1.691   2.346
  251SOL    HW2  763   1.649   1.640   2.499
  252SOL     OW  764   0.598   0.729   2.132
  252SOL    HW1  765   0.622   0.798   2.064
  252SOL    HW2  766   0.520   0.762   2.186
  253SOL     OW  767   1.281   0.345   2.806
  253SOL    HW1  768   1.195   0.295   2.793
  253SOL    HW2  769   1.343   0.291   2.862
  254SOL     OW  770   1.576   1.662   2.169
  254SOL    HW1  771   1.665   1.708   2.172
  254SOL    HW2  772   1.555   1.638   2.074
  255SOL     OW  773   0.807   0.605   3.327
  255SOL    HW1  774   0.760   0.602   3.416
  255SOL    HW2  775   0.756   0.550   3.261
  256SOL     OW  776   1.394   0.469   3.536
  256SOL    HW1  777   1.374   0.512   3.624
  256SOL    HW2  778   1.472   0.407   3.545
  257SOL     OW  779   0.973   0.890   3.434
  257SOL    HW1  780   1.019   0.806   3.405
  257SOL    HW2  781   0.917   0.924   3.359
  258SOL     OW  782   0.991   0.410   3.104
  258SOL    HW1  783   0.914   0.444   3.158
  258SOL    HW2  784   0.957   0.359   3.025
  259SOL     OW  785   1.041   0.701   2.291
  259SOL    HW1  786   1.067   0.697   2.387
  259SOL    HW2  787   0.956   0.650   2.277
  260SOL     OW  788   0.076   0.811   2.651
  260SOL    HW1  789   0.175   0.799   2.660
  260SOL    HW2  790   0.052   0.906   2.672
  261SOL     OW  791   0.130   1.821   3.433
  261SOL    HW1  792   0.120   1.806   3.532
  261SOL    HW2  793   0.044   1.857   3.397
  262SOL     OW  794   0.865   0.348   2.057
  262SOL    HW1  795   0.924   0.411   2.008
  262SOL    HW2  796   0.884   0.254   2.028
  263SOL     OW  797   1.719   0.585   3.693
  263SOL    HW1  798   1.693   0.674   3.657
  263SOL    HW2  799   1.717   0.517   3.620
  264SOL     OW  800   1.362   1.144   2.407
  264SOL    HW1  801   1.445   1.115   2.359
  264SOL    HW2  802   1.313   1.211   2.351
  265SOL     OW  803   0.550   0.196   2.747
  265SOL    HW1  804   0.545   0.191   2.847
  265SOL    HW2  805   0.552   0.292   2.718
  266SOL     OW  806   1.008   1.456   2.339
  266SOL    HW1  807   0.962   1.528   2.287
  266SOL    HW2  808   1.004   1.476   2.437
  267SOL     OW  809   0.351   1.801   2.715
  267SOL    HW1  810   0.401   1.715   2.721
  267SOL    HW2  811   0.416   1.878   2.712
  268SOL     OW  812   1.795   1.066   2.735
  268SOL    HW1  813   1.733   1.051   2.659
  268SOL    HW2  814   1.743   1.077   2.820
  269SOL     OW  815   1.227   1.550   3.368
  269SOL    HW1  816   1.233   1.473   3.432
  269SOL    HW2  817   1.175   1.524   3.288
  270SOL     OW  818   0.321   0.943   2.104
  270SOL    HW1  819   0.403   0.982   2.062
  270SOL    HW2  820   0.294   0.861   2.055
  271SOL     OW  821   1.458   0.735   2.590
  271SOL    HW1  822   1.453   0.670   2.665
  271SOL    HW2  823   1.538   0.794   2.603
  272SOL     OW  824   0.461   1.266   3.589
  272SOL    HW1  825   0.411   1.267   3.503
  272SOL    HW2  826   0.398   1.248   3.665
  273SOL     OW  827   1.111   1.776   2.099
  273SOL    HW1  828   1.051   1.714   2.149
  273SOL    HW2  829   1.142   1.732   2.014
  274SOL     OW  830   0.202   0.285   3.360
  274SOL    HW1  831   0.122   0.345   3.347
  274SOL    HW2  832   0.192   0.236   3.446
  275SOL     OW  833   1.632   1.377   1.943
  275SOL    HW1  834   1.600   1.471   1.933
  275SOL    HW2  835   1.556   1.314   1.931
  276SOL     OW  836   0.464   1.743   2.185
  276SOL    HW1  837   0.497   1.782   2.271
  276SOL    HW2  838   0.540   1.736   2.120
  277SOL     OW  839   1.400   0.107   2.288
  277SOL    HW1  840   1.376   0.070   2.198
  277SOL    HW2  841   1.499   0.123   2.292
  278SOL     OW  842   0.249   1.785   3.103
  278SOL    HW1  843   0.306   1.720   3.153
  278SOL    HW2  844   0.233   1.752   3.010
  279SOL     OW  845   0.940   1.698   2.766
  279SOL    HW1  846   1.020   1.641   2.787
  279SOL    HW2  847   0.891   1.658   2.689
  280SOL     OW  848   0.382   0.700   2.342
  280SOL    HW1  849   0.427   0.610   2.339
  280SOL    HW2  850   0.288   0.689   2.375
  281SOL     OW  851   1.547   0.222   3.591
  281SOL    HW1  852   1.542   0.259   3.683
  281SOL    HW2  853   1.475   0.153   3.579
  282SOL     OW  854   0.614   0.122   1.979
  282SOL    HW1  855   0.712   0.100   1.986
  282SOL    HW2  856   0.583   0.105   1.886
  283SOL     OW  857   0.781   0.264   3.611
  283SOL    HW1  858   0.848   0.203   3.654
  283SOL    HW2  859   0.708   0.283   3.676
  284SOL     OW  860   0.888   1.514   3.057
  284SOL    HW1  861   0.865   1.489   2.963
  284SOL    HW2  862   0.949   1.445   3.096
  285SOL     OW  863   1.351   0.590   3.295
  285SOL    HW1  864   1.379   0.547   3.380
  285SOL    HW2  865   1.376   0.686   3.296
  286SOL     OW  866   0.803   1.402   2.786
  286SOL    HW1  867   0.893   1.416   2.744
  286SOL    HW2  868   0.732   1.404   2.715
  287SOL     OW  869   0.922   0.503   2.761
  287SOL    HW1  870   0.897   0.494   2.665
  287SOL    HW2  871   0.970   0.421   2.792
  288SOL     OW  872   0.539   0.064   2.374
  288SOL    HW1  873   0.458   0.065   2.432
  288SOL    HW2  874   0.542   0.147   2.319
  289SOL     OW  875   1.434   1.188   1.903
  289SOL    HW1  876   1.466   1.112   1.960
  289SOL    HW2  877   1.342   1.215   1.933
  290SOL     OW  878   0.297   0.035   2.033
  290SOL    HW1  879   0.346   0.119   2.012
  290SOL    HW2  880   0.359  -0.030   2.078
  291SOL     OW  881   0.935   0.236   2.342
  291SOL    HW1  882   0.887   0.277   2.264
  291SOL    HW2  883   1.034   0.234   2.323
  292SOL     OW  884   1.076   0.683   3.326
  292SOL    HW1  885   0.996   0.622   3.329
  292SOL    HW2  886   1.157   0.630   3.302
  293SOL     OW  887   1.227   1.570   2.655
  293SOL    HW1  888   1.248   1.644   2.590
  293SOL    HW2  889   1.295   1.570   2.728
  294SOL     OW  890   0.459   1.152   2.603
  294SOL    HW1  891   0.388   1.125   2.668
  294SOL    HW2  892   0.433   1.124   2.510
  295SOL     OW  893   1.271   1.797   2.453
  295SOL    HW1  894   1.315   1.861   2.389
  295SOL    HW2  895   1.221   1.849   2.523
  296SOL     OW  896   1.032   0.549   1.878
  296SOL    HW1  897   0.991   0.631   1.839
  296SOL    HW2  898   1.096   0.575   1.951
  297SOL     OW  899   0.078   0.556   3.248
  297SOL    HW1  900   0.170   0.555   3.207
  297SOL    HW2  901   0.072   0.630   3.315
  298SOL     OW  902   0.561   0.222   3.009
  298SOL    HW1  903   0.599   0.138   3.046
  298SOL    HW2  904   0.473   0.241   3.053
  299SOL     OW  905   0.866   0.454   2.504
  299SOL    HW1  906   0.834   0.526   2.442
  299SOL    HW2  907   0.890   0.373   2.451
  300SOL     OW  908   1.017   0.039   2.615
  300SOL    HW1  909   0.945   0.044   2.546
  300SOL    HW2  910   0.993  -0.030   2.684
  301SOL     OW  911   1.429   1.173   2.729
  301SOL    HW1  912   1.374   1.089   2.722
  301SOL    HW2  913   1.455   1.202   2.637
  302SOL     OW  914   1.466   0.590   2.854
  302SOL    HW1  915   1.436   0.495   2.861
  302SOL    HW2  916   1.539   0.606   2.920
  303SOL     OW  917   1.857   0.833   2.239
  303SOL    HW1  918   1.899   0.769   2.303
  303SOL    HW2  919   1.819   0.782   2.161
  304SOL     OW  920   0.488   1.385   2.036
  304SOL    HW1  921   0.401   1.370   2.083
  304SOL    HW2  922   0.471   1.411   1.941
  305SOL     OW  923   1.664   1.280   2.519
  305SOL    HW1  924   1.763   1.288   2.533
  305SOL    HW2  925   1.619   1.364   2.550
  306SOL     OW  926   1.390   0.575   1.940
  306SOL    HW1  927   1.336   0.554   2.021
  306SOL    HW2  928   1.481   0.534   1.949
  307SOL     OW  929   0.527   0.256   2.190
  307SOL    HW1  930   0.554   0.197   2.115
  307SOL    HW2  931   0.527   0.351   2.159
  308SOL     OW  932   1.754   1.223   3.450
  308SOL    HW1  933   1.845   1.184   3.437
  308SOL    HW2  934   1.762   1.319   3.474
  309SOL     OW  935   1.064   1.347   3.202
  309SOL    HW1  936   0.984   1.324   3.257
  309SOL    HW2  937   1.147   1.321   3.251
  310SOL     OW  938   1.592   1.629   3.487
  310SOL    HW1  939   1.619   1.663   3.397
  310SOL    HW2  940   1.671   1.591   3.533
  311SOL     OW  941   1.111   1.195   2.962
  311SOL    HW1  942   1.071   1.239   3.043
  311SOL    HW2  943   1.070   1.232   2.879
  312SOL     OW  944   1.638   1.099   2.941
  312SOL    HW1  945   1.643   1.180   3.000
  312SOL    HW2  946   1.552   1.101   2.890
  313SOL     OW  947   0.915   0.089   3.264
  313SOL    HW1  948   0.940   0.069   3.169
  313SOL    HW2  949   0.987   0.145   3.306
  314SOL     OW  950   0.980   1.116   3.581
  314SOL    HW1  951   0.881   1.122   3.591
  314SOL    HW2  952   1.003   1.036   3.525
  315SOL     OW  953   0.705   1.050   2.230
  315SOL    HW1  954   0.691   1.057   2.329
  315SOL    HW2  955   0.789   0.999   2.212
  316SOL     OW  956   0.410   0.813   3.113
  316SOL    HW1  957   0.496   0.825   3.163
  316SOL    HW2  958   0.368   0.726   3.140
  317SOL     OW  959   1.274   0.386   3.124
  317SOL    HW1  960   1.295   0.460   3.188
  317SOL    HW2  961   1.185   0.403   3.081
  318SOL     OW  962   0.064   1.564   3.193
  318SOL    HW1  963   0.018   1.646   3.159
  318SOL    HW2  964   0.162   1.583   3.202
  319SOL     OW  965   0.367   1.100   2.363
  319SOL    HW1  966   0.360   1.183   2.307
  319SOL    HW2  967   0.371   1.020   2.303
  320SOL     OW  968   0.566   0.537   2.727
  320SOL    HW1  969   0.578   0.603   2.653
  320SOL    HW2  970   0.612   0.571   2.810
  321SOL     OW  971   1.252   1.348   2.250
  321SOL    HW1  972   1.302   1.425   2.290
  321SOL    HW2  973   1.157   1.350   2.282
  322SOL     OW  974   1.272   1.445   3.004
  322SOL    HW1  975   1.319   1.458   3.091
  322SOL    HW2  976   1.206   1.371   3.013
  323SOL     OW  977   1.582   0.639   2.334
  323SOL    HW1  978   1.551   0.700   2.407
  323SOL    HW2  979   1.632   0.691   2.265
  324SOL     OW  980   0.354   1.510   3.191
  324SOL    HW1  981   0.333   1.466   3.104
  324SOL    HW2  982   0.451   1.536   3.194
  325SOL     OW  983   0.402   0.751   3.460
  325SOL    HW1  984   0.470   0.806   3.413
  325SOL    HW2  985   0.442   0.663   3.487
  326SOL     OW  986   1.587   0.779   3.532
  326SOL    HW1  987   1.495   0.817   3.527
  326SOL    HW2  988   1.647   0.826   3.467
  327SOL     OW  989   1.013   0.105   3.632
  327SOL    HW1  990   1.019   0.190   3.580
  327SOL    HW2  991   1.045   0.029   3.575
  328SOL     OW  992   0.504   0.050   3.602
  328SOL    HW1  993   0.462  -0.007   3.532
  328SOL    HW2  994   0.438   0.119   3.634
  329SOL     OW  995   0.573   0.870   2.891
  329SOL    HW1  996   0.617   0.959   2.882
  329SOL    HW2  997   0.510   0.870   2.968
  330SOL     OW  998   1.360   0.862   2.907
  330SOL    HW1  999   1.285   0.862   2.841
  330SOL    HW2 1000   1.397   0.770   2.916
  331SOL     OW 1001   1.209   0.525   2.137
  331SOL    HW1 1002   1.222   0.441   2.191
  331SOL    HW2 1003   1.180   0.599   2.197
  332SOL     OW 1004   0.307   0.213   3.093
  332SOL    HW1 1005   0.284   0.250   3.183
  332SOL    HW2 1006   0.277   0.118   3.087
  333SOL     OW 1007   0.037   1.310   3.144
  333SOL    HW1 1008   0.090   1.261   3.212
  333SOL    HW2 1009   0.059   1.408   3.149
  334SOL     OW 1010   0.732   0.634   2.926
  334SOL    HW1 1011   0.791   0.608   2.850
  334SOL    HW2 1012   0.704   0.730   2.915
  335SOL     OW 1013   1.728   0.935   3.716
  335SOL    HW1 1014   1.682   0.928   3.627
  335SOL    HW2 1015   1.666   0.979   3.782
  336SOL     OW 1016   0.307   0.063   2.480
  336SOL    HW1 1017   0.296   0.157   2.513
  336SOL    HW2 1018   0.302   0.000   2.557
  337SOL     OW 1019   1.622   0.367   2.236
  337SOL    HW1 1020   1.624   0.291   2.300
  337SOL    HW2 1021   1.574   0.444   2.276
  338SOL     OW 1022   1.023   0.766   2.828
  338SOL    HW1 1023   1.038   0.787   2.924
  338SOL    HW2 1024   0.993   0.671   2.819
  339SOL     OW 1025   0.980   1.573   3.562
  339SOL    HW1 1026   0.960   1.617   3.474
  339SOL    HW2 1027   1.019   1.482   3.546
  340SOL     OW 1028   1.859   1.518   3.467
  340SOL    HW1 1029   1.873   1.545   3.372
  340SOL    HW2 1030   1.942   1.540   3.520
  341SOL     OW 1031   0.350   0.898   3.666
  341SOL    HW1 1032   0.426   0.942   3.714
  341SOL    HW2 1033   0.385   0.851   3.584
  342SOL     OW 1034   1.540   0.274   1.987
  342SOL    HW1 1035   1.479   0.199   2.010
  342SOL    HW2 1036   1.562   0.326   2.070
  343SOL     OW 1037   1.303   0.838   1.904
  343SOL    HW1 1038   1.337   0.745   1.919
  343SOL    HW2 1039   1.321   0.865   1.809
  344SOL     OW 1040   1.068   1.333   2.711
  344SOL    HW1 1041   1.075   1.249   2.656
  344SOL    HW2 1042   1.130   1.402   2.675
  345SOL     OW 1043   0.319   0.810   2.811
  345SOL    HW1 1044   0.412   0.846   2.816
  345SOL    HW2 1045   0.313   0.725   2.863
  346SOL     OW 1046   0.339   0.509   2.868
  346SOL    HW1 1047   0.287   0.426   2.851
  346SOL    HW2 1048   0.416   0.514   2.804
  347SOL     OW 1049   1.138   0.380   3.540
  347SOL    HW1 1050   1.093   0.443   3.604
  347SOL    HW2 1051   1.231   0.411   3.523
  348SOL     OW 1052   1.160   0.207   3.339
  348SOL    HW1 1053   1.160   0.271   3.416
  348SOL    HW2 1054   1.188   0.255   3.256
  349SOL     OW 1055   0.008   1.326   2.062
  349SOL    HW1 1056  -0.085   1.347   2.031
  349SOL    HW2 1057   0.018   1.227   2.075
  350SOL     OW 1058   0.088   1.801   2.789
  350SOL    HW1 1059   0.046   1.715   2.762
  350SOL    HW2 1060   0.182   1.804   2.755
  351SOL     OW 1061   0.504   1.568   2.772
  351SOL    HW1 1062   0.570   1.642   2.781
  351SOL    HW2 1063   0.548   1.489   2.730
  352SOL     OW 1064   1.002   0.796   3.100
  352SOL    HW1 1065   1.043   0.764   3.186
  352SOL    HW2 1066   0.906   0.769   3.097
  353SOL     OW 1067   0.040   0.544   2.976
  353SOL    HW1 1068   0.125   0.511   2.935
  353SOL    HW2 1069   0.053   0.559   3.074
  354SOL     OW 1070   0.189   0.520   3.584
  354SOL    HW1 1071   0.248   0.480   3.514
  354SOL    HW2 1072   0.131   0.591   3.543
  355SOL     OW 1073   1.369   0.950   3.522
  355SOL    HW1 1074   1.408   1.039   3.542
  355SOL    HW2 1075   1.379   0.930   3.425
  356SOL     OW 1076   0.815   0.572   2.187
  356SOL    HW1 1077   0.822   0.483   2.141
  356SOL    HW2 1078   0.721   0.606   2.179
  357SOL     OW 1079   1.657   0.604   3.068
  357SOL    HW1 1080   1.619   0.535   3.130
  357SOL    HW2 1081   1.739   0.568   3.024
  358SOL     OW 1082   0.252   1.564   3.606
  358SOL    HW1 1083   0.222   1.621   3.682
  358SOL    HW2 1084   0.245   1.467   3.632
  359SOL     OW 1085   0.671   0.464   3.131
  359SOL    HW1 1086   0.637   0.375   3.101
  359SOL    HW2 1087   0.697   0.518   3.051
  360SOL     OW 1088   0.930   1.678   3.327
  360SOL    HW1 1089   0.906   1.660   3.232
  360SOL    HW2 1090   0.960   1.772   3.337
  361SOL     OW 1091   0.473   0.500   2.053
  361SOL    HW1 1092   0.534   0.580   2.057
  361SOL    HW2 1093   0.378   0.531   2.060
  362SOL     OW 1094   0.159   1.137   3.328
  362SOL    HW1 1095   0.181   1.076   3.404
  362SOL    HW2 1096   0.169   1.088   3.242
  363SOL     OW 1097   1.347   1.059   3.096
  363SOL    HW1 1098   1.371   0.996   3.022
  363SOL    HW2 1099   1.257   1.099   3.078
  364SOL     OW 1100   1.302   0.855   2.171
  364SOL    HW1 1101   1.216   0.824   2.213
  364SOL    HW2 1102   1.298   0.841   2.072
  365SOL     OW 1103   1.759   1.747   3.016
  365SOL    HW1 1104   1.820   1.777   2.943
  365SOL    HW2 1105   1.721   1.658   2.994
  366SOL     OW 1106   1.252   1.731   2.990
  366SOL    HW1 1107   1.336   1.736   2.936
  366SOL    HW2 1108   1.229   1.635   3.008
  367SOL     OW 1109   0.083   1.258   2.884
  367SOL    HW1 1110   0.078   1.257   2.984
  367SOL    HW2 1111   0.000   1.217   2.846
  368SOL     OW 1112   0.688   1.662   3.578
  368SOL    HW1 1113   0.632   1.743   3.587
  368SOL    HW2 1114   0.740   1.666   3.492
  369SOL     OW 1115   1.726   0.135   2.385
  369SOL    HW1 1116   1.799   0.118   2.318
  369SOL    HW2 1117   1.695   0.048   2.423
  370SOL     OW 1118   1.388   1.573   2.339
  370SOL    HW1 1119   1.455   1.585   2.265
  370SOL    HW2 1120   1.348   1.662   2.362
  371SOL     OW 1121   0.130   1.794   3.713
  371SOL    HW1 1122   0.089   1.720   3.766
  371SOL    HW2 1123   0.194   1.845   3.771
  372SOL     OW 1124   1.280   0.927   2.534
  372SOL    HW1 1125   1.340   0.846   2.536
  372SOL    HW2 1126   1.320   0.996   2.474
  373SOL     OW 1127   0.830   1.273   3.284
  373SOL    HW1 1128   0.825   1.306   3.379
  373SOL    HW2 1129   0.744   1.292   3.238
  374SOL     OW 1130   0.672   1.616   2.016
  374SOL    HW1 1131   0.681   1.626   1.917
  374SOL    HW2 1132   0.632   1.527   2.037
  375SOL     OW 1133   1.650   1.720   3.256
  375SOL    HW1 1134   1.703   1.730   3.172
  375SOL    HW2 1135   1.623   1.810   3.290
  376SOL     OW 1136   1.841   0.175   2.825
  376SOL    HW1 1137   1.880   0.090   2.789
  376SOL    HW2 1138   1.743   0.177   2.806
  377SOL     OW 1139   0.263   0.326   2.582
  377SOL    HW1 1140   0.184   0.377   2.548
  377SOL    HW2 1141   0.254   0.311   2.680
  378SOL     OW 1142   1.194   1.612   1.893
  378SOL    HW1 1143   1.200   1.519   1.930
  378SOL    HW2 1144   1.135   1.612   1.813
  379SOL     OW 1145   0.822   1.002   3.234
  379SOL    HW1 1146   0.862   1.001   3.142
  379SOL    HW2 1147   0.832   1.094   3.274
  380SOL     OW 1148   0.916   0.910   2.153
  380SOL    HW1 1149   0.979   0.948   2.085
  380SOL    HW2 1150   0.956   0.827   2.192
  381SOL     OW 1151   1.504   1.607   1.906
  381SOL    HW1 1152   1.412   1.644   1.913
  381SOL    HW2 1153   1.542   1.627   1.816
  382SOL     OW 1154   0.372   1.288   3.352
  382SOL    HW1 1155   0.359   1.381   3.318
  382SOL    HW2 1156   0.288   1.236   3.339
  383SOL     OW 1157   1.614   1.292   3.151
  383SOL    HW1 1158   1.674   1.295   3.231
  383SOL    HW2 1159   1.539   1.356   3.164
  384SOL     OW 1160   1.039   1.098   2.558
  384SOL    HW1 1161   0.969   1.051   2.612
  384SOL    HW2 1162   1.098   1.030   2.515
  385SOL     OW 1163   1.014   0.236   2.833
  385SOL    HW1 1164   1.006   0.200   2.740
  385SOL    HW2 1165   1.012   0.160   2.898
  386SOL     OW 1166   0.590   1.487   2.353
  386SOL    HW1 1167   0.632   1.429   2.283
  386SOL    HW2 1168   0.546   1.566   2.309
  387SOL     OW 1169   1.709   0.385   3.243
  387SOL    HW1 1170   1.782   0.454   3.247
  387SOL    HW2 1171   1.737   0.310   3.184
  388SOL     OW 1172   0.255   1.348   2.152
  388SOL    HW1 1173   0.159   1.349   2.125
  388SOL    HW2 1174   0.267   1.401   2.236
  389SOL     OW 1175   0.105   1.013   3.588
  389SOL    HW1 1176   0.028   0.980   3.642
  389SOL    HW2 1177   0.190   0.983   3.630
  390SOL     OW 1178   0.672   0.203   3.351
  390SOL    HW1 1179   0.762   0.187   3.311
  390SOL    HW2 1180   0.680   0.208   3.450
  391SOL     OW 1181   0.075   0.345   1.895
  391SOL    HW1 1182  -0.017   0.317   1.866
  391SOL    HW2 1183   0.106   0.422   1.839
  392SOL     OW 1184   1.440   0.856   3.260
  392SOL    HW1 1185   1.383   0.908   3.197
  392SOL    HW2 1186   1.536   0.868   3.236
  393SOL     OW 1187   0.072   0.166   2.180
  393SOL    HW1 1188   0.055   0.249   2.126
  393SOL    HW2 1189   0.162   0.129   2.158
  394SOL     OW 1190   1.183   1.335   1.981
  394SOL    HW1 1191   1.084   1.324   1.983
  394SOL    HW2 1192   1.217   1.350   2.074
  395SOL     OW 1193   0.613   0.842   3.293
  395SOL    HW1 1194   0.669   0.923   3.276
  395SOL    HW2 1195   0.672   0.762   3.296
  396SOL     OW 1196   1.493   1.767   2.821
  396SOL    HW1 1197   1.526   1.831   2.752
  396SOL    HW2 1198   1.559   1.761   2.896
  397SOL     OW 1199   0.716   0.565   3.570
  397SOL    HW1 1200   0.735   0.630   3.644
  397SOL    HW2 1201   0.776   0.485   3.579
  398SOL     OW 1202   1.450   1.220   3.495
  398SOL    HW1 1203   1.441   1.210   3.594
  398SOL    HW2 1204   1.546   1.213   3.469
  399SOL     OW 1205   0.390   1.741   3.422
  399SOL    HW1 1206   0.299   1.782   3.420
  399SOL    HW2 1207   0.383   1.647   3.454
  400SOL     OW 1208   1.674   0.883   3.116
  400SOL    HW1 1209   1.647   0.794   3.079
  400SOL    HW2 1210   1.675   0.951   3.043
  401SOL     OW 1211   1.225   0.325   2.311
  401SOL    HW1 1212   1.290   0.251   2.300
  401SOL    HW2 1213   1.245   0.375   2.395
  402SOL     OW 1214   0.594   0.745   2.514
  402SOL    HW1 1215   0.644   0.830   2.495
  402SOL    HW2 1216   0.506   0.747   2.466
  403SOL     OW 1217   1.777   0.342   3.504
  403SOL    HW1 1218   1.760   0.373   3.410
  403SOL    HW2 1219   1.693   0.305   3.542
  404SOL     OW 1220   1.730   0.934   3.379
  404SOL    HW1 1221   1.768   1.025   3.394
  404SOL    HW2 1222   1.722   0.917   3.280
  405SOL     OW 1223   0.859   1.374   1.878
  405SOL    HW1 1224   0.813   1.389   1.966
  405SOL    HW2 1225   0.903   1.459   1.848
  406SOL     OW 1226   0.661   1.790   2.815
  406SOL    HW1 1227   0.615   1.878   2.802
  406SOL    HW2 1228   0.760   1.802   2.808
  407SOL     OW 1229   0.859   0.956   2.723
  407SOL    HW1 1230   0.913   0.887   2.771
  407SOL    HW2 1231   0.827   1.025   2.789
  408SOL     OW 1232   1.083   0.984   1.949
  408SOL    HW1 1233   1.060   1.037   1.867
  408SOL    HW2 1234   1.164   0.928   1.930
  409SOL     OW 1235   1.861   1.569   2.713
  409SOL    HW1 1236   1.790   1.557   2.643
  409SOL    HW2 1237   1.862   1.490   2.773
  410SOL     OW 1238   0.221   1.314   3.706
  410SOL    HW1 1239   0.156   1.241   3.685
  410SOL    HW2 1240   0.225   1.328   3.804
  411SOL     OW 1241   0.079   1.240   2.515
  411SOL    HW1 1242   0.078   1.193   2.603
  411SOL    HW2 1243   0.161   1.212   2.464
  412SOL     OW 1244   0.672   1.391   3.486
  412SOL    HW1 1245   0.594   1.341   3.524
  412SOL    HW2 1246   0.669   1.486   3.517
  413SOL     OW 1247   1.824   0.192   3.089
  413SOL    HW1 1248   1.820   0.102   3.133
  413SOL    HW2 1249   1.827   0.181   2.990
  414SOL     OW 1250   0.428   0.424   2.382
  414SOL    HW1 1251   0.458   0.352   2.320
  414SOL    HW2 1252   0.389   0.384   2.465
  415SOL     OW 1253   1.705   1.487   2.966
  415SOL    HW1 1254   1.612   1.462   2.939
  415SOL    HW2 1255   1.731   1.437   3.048
  416SOL     OW 1256   0.317   0.547   3.142
  416SOL    HW1 1257   0.355   0.488   3.214
  416SOL    HW2 1258   0.357   0.521   3.054
  417SOL     OW 1259   0.812   1.586   2.549
  417SOL    HW1 1260   0.844   1.596   2.455
  417SOL    HW2 1261   0.733   1.524   2.551
  418SOL     OW 1262   1.424   0.214   2.974
  418SOL    HW1 1263   1.476   0.149   3.029
  418SOL    HW2 1264   1.375   0.277   3.035
  419SOL     OW 1265   1.001   0.034   3.016
  419SOL    HW1 1266   0.938  -0.038   2.985
  419SOL    HW2 1267   1.094  -0.002   3.016
  420SOL     OW 1268   0.770   1.330   2.163
  420SOL    HW1 1269   0.724   1.243   2.180
  420SOL    HW2 1270   0.861   1.327   2.204
  421SOL     OW 1271   0.618   1.567   3.146
  421SOL    HW1 1272   0.613   1.649   3.203
  421SOL    HW2 1273   0.707   1.564   3.101
  422SOL     OW 1274   1.352   0.052   2.030
  422SOL    HW1 1275   1.387   0.011   1.946
  422SOL    HW2 1276   1.262   0.014   2.050
  423SOL     OW 1277   1.300   0.453   2.553
  423SOL    HW1 1278   1.241   0.533   2.557
  423SOL    HW2 1279   1.315   0.418   2.646
  424SOL     OW 1280   1.593   0.221   2.744
  424SOL    HW1 1281   1.509   0.220   2.798
  424SOL    HW2 1282   1.595   0.304   2.688
  425SOL     OW 1283   0.039   1.077   2.162
  425SOL    HW1 1284   0.138   1.066   2.153
  425SOL    HW2 1285  -0.001   0.991   2.194
  426SOL     OW 1286   0.875   1.646   2.199
  426SOL    HW1 1287   0.798   1.611   2.145
  426SOL    HW2 1288   0.843   1.717   2.261
  427SOL     OW 1289   0.230   0.628   3.837
  427SOL    HW1 1290   0.137   0.626   3.874
  427SOL    HW2 1291   0.231   0.589   3.745
  428SOL     OW 1292   1.755   0.607   3.955
  428SOL    HW1 1293   1.743   0.594   3.856
  428SOL    HW2 1294   1.725   0.526   4.004
  429SOL     OW 1295   0.231   1.713   4.207
  429SOL    HW1 1296   0.265   1.790   4.261
  429SOL    HW2 1297   0.275   1.713   4.117
  430SOL     OW 1298   0.230   1.434   4.262
  430SOL    HW1 1299   0.204   1.530   4.262
  430SOL    HW2 1300   0.159   1.380   4.307
  431SOL     OW 1301   0.606   0.964   3.847
  431SOL    HW1 1302   0.613   1.048   3.793
  431SOL    HW2 1303   0.652   0.977   3.935
  432SOL     OW 1304   0.122   0.643   4.287
  432SOL    HW1 1305   0.077   0.555   4.304
  432SOL    HW2 1306   0.121   0.697   4.371
  433SOL     OW 1307   1.842   1.767   4.083
  433SOL    HW1 1308   1.896   1.738   4.163
  433SOL    HW2 1309   1.872   1.857   4.054
  434SOL     OW 1310   0.027   1.596   3.841
  434SOL    HW1 1311   0.008   1.500   3.862
  434SOL    HW2 1312  -0.006   1.654   3.916
  435SOL     OW 1313   1.689   0.922   4.336
  435SOL    HW1 1314   1.784   0.893   4.344
  435SOL    HW2 1315   1.681   0.987   4.261
  436SOL     OW 1316   1.641   1.108   4.156
  436SOL    HW1 1317   1.727   1.110   4.104
  436SOL    HW2 1318   1.655   1.155   4.244
  437SOL     OW 1319   0.613   1.365   4.450
  437SOL    HW1 1320   0.564   1.278   4.459
  437SOL    HW2 1321   0.590   1.408   4.363
  438SOL     OW 1322   0.809   0.004   4.226
  438SOL    HW1 1323   0.849   0.095   4.217
  438SOL    HW2 1324   0.709   0.012   4.232
  439SOL     OW 1325   1.525   0.999   3.914
  439SOL    HW1 1326   1.462   0.923   3.927
  439SOL    HW2 1327   1.573   1.017   4.000
  440SOL     OW 1328   1.466   1.417   4.677
  440SOL    HW1 1329   1.407   1.423   4.757
  440SOL    HW2 1330   1.451   1.329   4.631
  441SOL     OW 1331   0.598   0.729   3.994
  441SOL    HW1 1332   0.622   0.798   3.926
  441SOL    HW2 1333   0.520   0.762   4.048
  442SOL     OW 1334   1.576   1.662   4.031
  442SOL    HW1 1335   1.665   1.708   4.034
  442SOL    HW2 1336   1.555   1.638   3.936
  443SOL     OW 1337   1.041   0.701   4.153
  443SOL    HW1 1338   1.067   0.697   4.249
  443SOL    HW2 1339   0.956   0.650   4.139
  444SOL     OW 1340   0.076   0.811   4.513
  444SOL    HW1 1341   0.175   0.799   4.522
  444SOL    HW2 1342   0.052   0.906   4.534
  445SOL     OW 1343   0.865   0.348   3.919
  445SOL    HW1 1344   0.924   0.411   3.870
  445SOL    HW2 1345   0.884   0.254   3.890
  446SOL     OW 1346   1.362   1.144   4.269
  446SOL    HW1 1347   1.445   1.115   4.221
  446SOL    HW2 1348   1.313   1.211   4.213
  447SOL     OW 1349   1.008   1.456   4.201
  447SOL    HW1 1350   0.962   1.528   4.149
  447SOL    HW2 1351   1.004   1.476   4.299
  448SOL     OW 1352   0.351   1.801   4.577
  448SOL    HW1 1353   0.401   1.715   4.583
  448SOL    HW2 1354   0.416   1.878   4.574
  449SOL     OW 1355   1.795   1.066   4.597
  449SOL    HW1 1356   1.733   1.051   4.521
  449SOL    HW2 1357   1.743   1.077   4.682
  450SOL     OW 1358   0.321   0.943   3.966
  450SOL    HW1 1359   0.403   0.982   3.924
  450SOL    HW2 1360   0.294   0.861   3.917
  451SOL     OW 1361   1.111   1.776   3.961
  451SOL    HW1 1362   1.051   1.714   4.011
  451SOL    HW2 1363   1.142   1.732   3.876
  452SOL     OW 1364   1.632   1.377   3.805
  452SOL    HW1 1365   1.600   1.471   3.795
  452SOL    HW2 1366   1.556   1.314   3.793
  453SOL     OW 1367   0.464   1.743   4.047
  453SOL    HW1 1368   0.497   1.782   4.133
  453SOL    HW2 1369   0.540   1.736   3.982
  454SOL     OW 1370   1.400   0.107   4.150
  454SOL    HW1 1371   1.376   0.070   4.060
  454SOL    HW2 1372   1.499   0.123   4.154
  455SOL     OW 1373   0.382   0.700   4.204
  455SOL    HW1 1374   0.427   0.610   4.201
  455SOL    HW2 1375   0.288   0.689   4.237
  456SOL     OW 1376   0.614   0.122   3.841
  456SOL    HW1 1377   0.712   0.100   3.848
  456SOL    HW2 1378   0.583   0.105   3.748
  457SOL     OW 1379   0.539   0.064   4.236
  457SOL    HW1 1380   0.458   0.065   4.294
  457SOL    HW2 1381   0.542   0.147   4.181
  458SOL     OW 1382   1.434   1.188   3.765
  458SOL    HW1 1383   1.466   1.112   3.822
  458SOL    HW2 1384   1.342   1.215   3.795
  459SOL     OW 1385   0.297   0.035   3.895
  459SOL    HW1 1386   0.346   0.119   3.874
  459SOL    HW2 1387   0.359  -0.030   3.940
  460SOL     OW 1388   0.935   0.236   4.204
  460SOL    HW1 1389   0.887   0.277   4.126
  460SOL    HW2 1390   1.034   0.234   4.185
  461SOL     OW 1391   0.459   1.152   4.465
  461SOL    HW1 1392   0.388   1.125   4.530
  461SOL    HW2 1393   0.433   1.124   4.372
  462SOL     OW 1394   1.271   1.797   4.315
  462SOL    HW1 1395   1.315   1.861   4.251
  462SOL    HW2 1396   1.221   1.849   4.385
  463SOL     OW 1397   1.032   0.549   3.740
  463SOL    HW1 1398   0.991   0.631   3.701
  463SOL    HW2 1399   1.096   0.575   3.813
  464SOL     OW 1400   0.866   0.454   4.366
  464SOL    HW1 1401   0.834   0.526   4.304
  464SOL    HW2 1402   0.890   0.373   4.313
  465SOL     OW 1403   1.857   0.833   4.101
  465SOL    HW1 1404   1.899   0.769   4.165
  465SOL    HW2 1405   1.819   0.782   4.023
  466SOL     OW 1406   0.488   1.385   3.898
  466SOL    HW1 1407   0.401   1.370   3.945
  466SOL    HW2 1408   0.471   1.411   3.803
  467SOL     OW 1409   1.390   0.575   3.802
  467SOL    HW1 1410   1.336   0.554   3.883
  467SOL    HW2 1411   1.481   0.534   3.811
  468SOL     OW 1412   0.527   0.256   4.052
  468SOL    HW1 1413   0.554   0.197   3.977
  468SOL    HW2 1414   0.527   0.351   4.021
  469SOL     OW 1415   0.705   1.050   4.092
  469SOL    HW1 1416   0.691   1.057   4.191
  469SOL    HW2 1417   0.789   0.999   4.074
  470SOL     OW 1418   0.367   1.100   4.225
  470SOL    HW1 1419   0.360   1.183   4.169
  470SOL    HW2 1420   0.371   1.020   4.165
  471SOL     OW 1421   1.252   1.348   4.112
  471SOL    HW1 1422   1.302   1.425   4.152
  471SOL    HW2 1423   1.157   1.350   4.144
  472SOL     OW 1424   1.582   0.639   4.196
  472SOL    HW1 1425   1.551   0.700   4.269
  472SOL    HW2 1426   1.632   0.691   4.127
  473SOL     OW 1427   1.209   0.525   3.999
  473SOL    HW1 1428   1.222   0.441   4.053
  473SOL    HW2 1429   1.180   0.599   4.059
  474SOL     OW 1430   0.307   0.063   4.342
  474SOL    HW1 1431   0.296   0.157   4.375
  474SOL    HW2 1432   0.302   0.000   4.419
  475SOL     OW 1433   1.622   0.367   4.098
  475SOL    HW1 1434   1.624   0.291   4.162
  475SOL    HW2 1435   1.574   0.444   4.138
  476SOL     OW 1436   1.540   0.274   3.849
  476SOL    HW1 1437   1.479   0.199   3.872
  476SOL    HW2 1438   1.562   0.326   3.932
  477SOL     OW 1439   1.303   0.838   3.766
  477SOL    HW1 1440   1.337   0.745   3.781
  477SOL    HW2 1441   1.321   0.865   3.671
  478SOL     OW 1442   0.008   1.326   3.924
  478SOL    HW1 1443  -0.085   1.347   3.893
  478SOL    HW2 1444   0.018   1.227   3.937
  479SOL     OW 1445   0.815   0.572   4.049
  479SOL    HW1 1446   0.822   0.483   4.003
  479SOL    HW2 1447   0.721   0.606   4.041
  480SOL     OW 1448   0.473   0.500   3.915
  480SOL    HW1 1449   0.534   0.580   3.919
  480SOL    HW2 1450   0.378   0.531   3.922
  481SOL     OW 1451   1.302   0.855   4.033
  481SOL    HW1 1452   1.216   0.824   4.075
  481SOL    HW2 1453   1.298   0.841   3.934
  482SOL     OW 1454   1.726   0.135   4.247
  482SOL    HW1 1455   1.799   0.118   4.180
  482SOL    HW2 1456   1.695   0.048   4.285
  483SOL     OW 1457   1.388   1.573   4.201
  483SOL    HW1 1458   1.455   1.585   4.127
  483SOL    HW2 1459   1.348   1.662   4.224
  484SOL     OW 1460   0.672   1.616   3.878
  484SOL    HW1 1461   0.681   1.626   3.779
  484SOL    HW2 1462   0.632   1.527   3.899
  485SOL     OW 1463   1.841   0.175   4.687
  485SOL    HW1 1464   1.880   0.090   4.651
  485SOL    HW2 1465   1.743   0.177   4.668
  486SOL     OW 1466   1.194   1.612   3.755
  486SOL    HW1 1467   1.200   1.519   3.792
  486SOL    HW2 1468   1.135   1.612   3.675
  487SOL     OW 1469   0.916   0.910   4.015
  487SOL    HW1 1470   0.979   0.948   3.947
  487SOL    HW2 1471   0.956   0.827   4.054
  488SOL     OW 1472   1.504   1.607   3.768
  488SOL    HW1 1473   1.412   1.644   3.775
  488SOL    HW2 1474   1.542   1.627   3.678
  489SOL     OW 1475   0.590   1.487   4.215
  489SOL    HW1 1476   0.632   1.429   4.145
  489SOL    HW2 1477   0.546   1.566   4.171
  490SOL     OW 1478   0.255   1.348   4.014
  490SOL    HW1 1479   0.159   1.349   3.987
  490SOL    HW2 1480   0.267   1.401   4.098
  491SOL     OW 1481   0.075   0.345   3.757
  491SOL    HW1 1482  -0.017   0.317   3.728
  491SOL    HW2 1483   0.106   0.422   3.701
  492SOL     OW 1484   0.072   0.166   4.042
  492SOL    HW1 1485   0.055   0.249   3.988
  492SOL    HW2 1486   0.162   0.129   4.020
  493SOL     OW 1487   1.183   1.335   3.843
  493SOL    HW1 1488   1.084   1.324   3.845
  493SOL    HW2 1489   1.217   1.350   3.936
  494SOL     OW 1490   1.225   0.325   4.173
  494SOL    HW1 1491   1.290   0.251   4.162
  494SOL    HW2 1492   1.245   0.375   4.257
  495SOL     OW 1493   0.594   0.745   4.376
  495SOL    HW1 1494   0.644   0.830   4.357
  495SOL    HW2 1495   0.506   0.747   4.328
  496SOL     OW 1496   0.859   1.374   3.740
  496SOL    HW1 1497   0.813   1.389   3.828
  496SOL    HW2 1498   0.903   1.459   3.710
  497SOL     OW 1499   1.083   0.984   3.811
  497SOL    HW1 1500   1.060   1.037   3.729
  497SOL    HW2 1501   1.164   0.928   3.792
  498SOL     OW 1502   0.079   1.240   4.377
  498SOL    HW1 1503   0.078   1.193   4.465
  498SOL    HW2 1504   0.161   1.212   4.326
  499SOL     OW 1505   0.428   0.424   4.244
  499SOL    HW1 1506   0.458   0.352   4.182
  499SOL    HW2 1507   0.389   0.384   4.327
  500SOL     OW 1508   0.812   1.586   4.411
  500SOL    HW1 1509   0.844   1.596   4.317
  500SOL    HW2 1510   0.733   1.524   4.413
  501SOL     OW 1511   0.770   1.330   4.025
  501SOL    HW1 1512   0.724   1.243   4.042
  501SOL    HW2 1513   0.861   1.327   4.066
  502SOL     OW 1514   1.352   0.052   3.892
  502SOL    HW1 1515   1.387   0.011   3.808
  502SOL    HW2 1516   1.262   0.014   3.912
  503SOL     OW 1517   1.300   0.453   4.415
  503SOL    HW1 1518   1.241   0.533   4.419
  503SOL    HW2 1519   1.315   0.418   4.508
  504SOL     OW 1520   0.039   1.077   4.024
  504SOL    HW1 1521   0.138   1.066   4.015
  504SOL    HW2 1522  -0.001   0.991   4.056
  505SOL     OW 1523   0.875   1.646   4.061
  505SOL    HW1 1524   0.798   1.611   4.007
  505SOL    HW2 1525   0.843   1.717   4.123
  506SOL     OW 1526   0.230   2.490   0.113
  506SOL    HW1 1527   0.137   2.488   0.150
  506SOL    HW2 1528   0.231   2.451   0.021
  507SOL     OW 1529   0.225   2.137   0.996
  507SOL    HW1 1530   0.260   2.120   1.088
  507SOL    HW2 1531   0.137   2.092   0.984
  508SOL     OW 1532   0.019   2.230   0.647
  508SOL    HW1 1533  -0.063   2.273   0.686
  508SOL    HW2 1534  -0.009   2.157   0.584
  509SOL     OW 1535   0.569   3.137   1.165
  509SOL    HW1 1536   0.476   3.130   1.128
  509SOL    HW2 1537   0.580   3.226   1.209
  510SOL     OW 1538   1.555   3.373   0.703
  510SOL    HW1 1539   1.498   3.357   0.784
  510SOL    HW2 1540   1.496   3.383   0.623
  511SOL     OW 1541   1.135   2.565   0.717
  511SOL    HW1 1542   1.192   2.643   0.692
  511SOL    HW2 1543   1.075   2.591   0.793
  512SOL     OW 1544   1.755   2.469   0.231
  512SOL    HW1 1545   1.743   2.456   0.132
  512SOL    HW2 1546   1.725   2.388   0.280
  513SOL     OW 1547   0.768   3.006   1.023
  513SOL    HW1 1548   0.690   3.023   1.083
  513SOL    HW2 1549   0.802   3.093   0.987
  514SOL     OW 1550   0.850   2.660   1.823
  514SOL    HW1 1551   0.846   2.736   1.888
  514SOL    HW2 1552   0.872   2.696   1.732
  515SOL     OW 1553   0.685   2.874   0.665
  515SOL    HW1 1554   0.754   2.858   0.735
  515SOL    HW2 1555   0.612   2.931   0.703
  516SOL     OW 1556   0.686   3.023   1.803
  516SOL    HW1 1557   0.746   3.102   1.817
  516SOL    HW2 1558   0.600   3.054   1.762
  517SOL     OW 1559   0.335   3.297   1.061
  517SOL    HW1 1560   0.257   3.266   1.008
  517SOL    HW2 1561   0.393   3.355   1.004
  518SOL     OW 1562   1.460   3.367   1.339
  518SOL    HW1 1563   1.484   3.461   1.365
  518SOL    HW2 1564   1.444   3.313   1.421
  519SOL     OW 1565   0.438   2.254   1.499
  519SOL    HW1 1566   0.520   2.198   1.508
  519SOL    HW2 1567   0.357   2.196   1.503
  520SOL     OW 1568   1.603   2.309   0.737
  520SOL    HW1 1569   1.529   2.355   0.687
  520SOL    HW2 1570   1.654   2.377   0.790
  521SOL     OW 1571   0.231   3.575   0.483
  521SOL    HW1 1572   0.265   3.652   0.537
  521SOL    HW2 1573   0.275   3.575   0.393
  522SOL     OW 1574   1.127   3.203   1.690
  522SOL    HW1 1575   1.174   3.203   1.778
  522SOL    HW2 1576   1.079   3.116   1.679
  523SOL     OW 1577   0.230   3.296   0.538
  523SOL    HW1 1578   0.204   3.392   0.538
  523SOL    HW2 1579   0.159   3.242   0.583
  524SOL     OW 1580   0.240   2.953   0.886
  524SOL    HW1 1581   0.254   2.869   0.938
  524SOL    HW2 1582   0.185   3.017   0.941
  525SOL     OW 1583   0.620   3.648   1.439
  525SOL    HW1 1584   0.528   3.631   1.474
  525SOL    HW2 1585   0.648   3.740   1.465
  526SOL     OW 1586   0.606   2.826   0.123
  526SOL    HW1 1587   0.613   2.910   0.069
  526SOL    HW2 1588   0.652   2.839   0.211
  527SOL     OW 1589   1.594   1.976   1.480
  527SOL    HW1 1590   1.576   2.043   1.408
  527SOL    HW2 1591   1.591   2.022   1.569
  528SOL     OW 1592   0.122   2.505   0.563
  528SOL    HW1 1593   0.077   2.417   0.580
  528SOL    HW2 1594   0.121   2.559   0.647
  529SOL     OW 1595   1.842   3.629   0.359
  529SOL    HW1 1596   1.896   3.600   0.439
  529SOL    HW2 1597   1.872   3.719   0.330
  530SOL     OW 1598   0.027   3.458   0.117
  530SOL    HW1 1599   0.008   3.362   0.138
  530SOL    HW2 1600  -0.006   3.516   0.192
  531SOL     OW 1601   1.689   2.784   0.612
  531SOL    HW1 1602   1.784   2.755   0.620
  531SOL    HW2 1603   1.681   2.849   0.537
  532SOL     OW 1604   1.641   2.970   0.432
  532SOL    HW1 1605   1.727   2.972   0.380
  532SOL    HW2 1606   1.655   3.017   0.520
  533SOL     OW 1607   0.113   2.599   1.597
  533SOL    HW1 1608   0.201   2.586   1.642
  533SOL    HW2 1609   0.100   2.696   1.575
  534SOL     OW 1610   0.613   3.227   0.726
  534SOL    HW1 1611   0.564   3.140   0.735
  534SOL    HW2 1612   0.590   3.270   0.639
  535SOL     OW 1613   1.293   3.090   1.423
  535SOL    HW1 1614   1.330   3.017   1.365
  535SOL    HW2 1615   1.345   3.095   1.508
  536SOL     OW 1616   0.809   1.866   0.502
  536SOL    HW1 1617   0.849   1.957   0.493
  536SOL    HW2 1618   0.709   1.874   0.508
  537SOL     OW 1619   0.197   2.838   1.264
  537SOL    HW1 1620   0.286   2.793   1.250
  537SOL    HW2 1621   0.124   2.773   1.245
  538SOL     OW 1622   1.525   2.861   0.190
  538SOL    HW1 1623   1.462   2.785   0.203
  538SOL    HW2 1624   1.573   2.879   0.276
  539SOL     OW 1625   1.187   3.654   1.616
  539SOL    HW1 1626   1.211   3.714   1.540
  539SOL    HW2 1627   1.194   3.559   1.586
  540SOL     OW 1628   0.317   2.113   1.801
  540SOL    HW1 1629   0.388   2.184   1.807
  540SOL    HW2 1630   0.229   2.152   1.829
  541SOL     OW 1631   1.466   3.279   0.953
  541SOL    HW1 1632   1.407   3.285   1.033
  541SOL    HW2 1633   1.451   3.191   0.907
  542SOL     OW 1634   1.667   3.576   0.572
  542SOL    HW1 1635   1.626   3.553   0.484
  542SOL    HW2 1636   1.649   3.502   0.637
  543SOL     OW 1637   0.598   2.591   0.270
  543SOL    HW1 1638   0.622   2.660   0.202
  543SOL    HW2 1639   0.520   2.624   0.324
  544SOL     OW 1640   1.281   2.207   0.944
  544SOL    HW1 1641   1.195   2.157   0.931
  544SOL    HW2 1642   1.343   2.153   1.000
  545SOL     OW 1643   1.576   3.524   0.307
  545SOL    HW1 1644   1.665   3.570   0.310
  545SOL    HW2 1645   1.555   3.500   0.212
  546SOL     OW 1646   0.807   2.467   1.465
  546SOL    HW1 1647   0.760   2.464   1.554
  546SOL    HW2 1648   0.756   2.412   1.399
  547SOL     OW 1649   1.394   2.331   1.674
  547SOL    HW1 1650   1.374   2.374   1.762
  547SOL    HW2 1651   1.472   2.269   1.683
  548SOL     OW 1652   0.973   2.752   1.572
  548SOL    HW1 1653   1.019   2.668   1.543
  548SOL    HW2 1654   0.917   2.786   1.497
  549SOL     OW 1655   0.991   2.272   1.242
  549SOL    HW1 1656   0.914   2.306   1.296
  549SOL    HW2 1657   0.957   2.221   1.163
  550SOL     OW 1658   1.041   2.563   0.429
  550SOL    HW1 1659   1.067   2.559   0.525
  550SOL    HW2 1660   0.956   2.512   0.415
  551SOL     OW 1661   0.076   2.673   0.789
  551SOL    HW1 1662   0.175   2.661   0.798
  551SOL    HW2 1663   0.052   2.768   0.810
  552SOL     OW 1664   0.130   3.683   1.571
  552SOL    HW1 1665   0.120   3.668   1.670
  552SOL    HW2 1666   0.044   3.719   1.535
  553SOL     OW 1667   0.865   2.210   0.195
  553SOL    HW1 1668   0.924   2.273   0.146
  553SOL    HW2 1669   0.884   2.116   0.166
  554SOL     OW 1670   1.719   2.447   1.831
  554SOL    HW1 1671   1.693   2.536   1.795
  554SOL    HW2 1672   1.717   2.379   1.758
  555SOL     OW 1673   1.362   3.006   0.545
  555SOL    HW1 1674   1.445   2.977   0.497
  555SOL    HW2 1675   1.313   3.073   0.489
  556SOL     OW 1676   0.550   2.058   0.885
  556SOL    HW1 1677   0.545   2.053   0.985
  556SOL    HW2 1678   0.552   2.154   0.856
  557SOL     OW 1679   1.008   3.318   0.477
  557SOL    HW1 1680   0.962   3.390   0.425
  557SOL    HW2 1681   1.004   3.338   0.575
  558SOL     OW 1682   0.351   3.663   0.853
  558SOL    HW1 1683   0.401   3.577   0.859
  558SOL    HW2 1684   0.416   3.740   0.850
  559SOL     OW 1685   1.795   2.928   0.873
  559SOL    HW1 1686   1.733   2.913   0.797
  559SOL    HW2 1687   1.743   2.939   0.958
  560SOL     OW 1688   1.227   3.412   1.506
  560SOL    HW1 1689   1.233   3.335   1.570
  560SOL    HW2 1690   1.175   3.386   1.426
  561SOL     OW 1691   0.321   2.805   0.242
  561SOL    HW1 1692   0.403   2.844   0.200
  561SOL    HW2 1693   0.294   2.723   0.193
  562SOL     OW 1694   1.458   2.597   0.728
  562SOL    HW1 1695   1.453   2.532   0.803
  562SOL    HW2 1696   1.538   2.656   0.741
  563SOL     OW 1697   0.461   3.128   1.727
  563SOL    HW1 1698   0.411   3.129   1.641
  563SOL    HW2 1699   0.398   3.110   1.803
  564SOL     OW 1700   1.111   3.638   0.237
  564SOL    HW1 1701   1.051   3.576   0.287
  564SOL    HW2 1702   1.142   3.594   0.152
  565SOL     OW 1703   0.202   2.147   1.498
  565SOL    HW1 1704   0.122   2.207   1.485
  565SOL    HW2 1705   0.192   2.098   1.584
  566SOL     OW 1706   1.632   3.239   0.081
  566SOL    HW1 1707   1.600   3.333   0.071
  566SOL    HW2 1708   1.556   3.176   0.069
  567SOL     OW 1709   0.464   3.605   0.323
  567SOL    HW1 1710   0.497   3.644   0.409
  567SOL    HW2 1711   0.540   3.598   0.258
  568SOL     OW 1712   1.400   1.969   0.426
  568SOL    HW1 1713   1.376   1.932   0.336
  568SOL    HW2 1714   1.499   1.985   0.430
  569SOL     OW 1715   0.249   3.647   1.241
  569SOL    HW1 1716   0.306   3.582   1.291
  569SOL    HW2 1717   0.233   3.614   1.148
  570SOL     OW 1718   0.940   3.560   0.904
  570SOL    HW1 1719   1.020   3.503   0.925
  570SOL    HW2 1720   0.891   3.520   0.827
  571SOL     OW 1721   0.382   2.562   0.480
  571SOL    HW1 1722   0.427   2.472   0.477
  571SOL    HW2 1723   0.288   2.551   0.513
  572SOL     OW 1724   1.547   2.084   1.729
  572SOL    HW1 1725   1.542   2.121   1.821
  572SOL    HW2 1726   1.475   2.015   1.717
  573SOL     OW 1727   0.614   1.984   0.117
  573SOL    HW1 1728   0.712   1.962   0.124
  573SOL    HW2 1729   0.583   1.967   0.024
  574SOL     OW 1730   0.781   2.126   1.749
  574SOL    HW1 1731   0.848   2.065   1.792
  574SOL    HW2 1732   0.708   2.145   1.814
  575SOL     OW 1733   0.888   3.376   1.195
  575SOL    HW1 1734   0.865   3.351   1.101
  575SOL    HW2 1735   0.949   3.307   1.234
  576SOL     OW 1736   1.351   2.452   1.433
  576SOL    HW1 1737   1.379   2.409   1.518
  576SOL    HW2 1738   1.376   2.548   1.434
  577SOL     OW 1739   0.803   3.264   0.924
  577SOL    HW1 1740   0.893   3.278   0.882
  577SOL    HW2 1741   0.732   3.266   0.853
  578SOL     OW 1742   0.922   2.365   0.899
  578SOL    HW1 1743   0.897   2.356   0.803
  578SOL    HW2 1744   0.970   2.283   0.930
  579SOL     OW 1745   0.539   1.926   0.512
  579SOL    HW1 1746   0.458   1.927   0.570
  579SOL    HW2 1747   0.542   2.009   0.457
  580SOL     OW 1748   1.434   3.050   0.041
  580SOL    HW1 1749   1.466   2.974   0.098
  580SOL    HW2 1750   1.342   3.077   0.071
  581SOL     OW 1751   0.935   2.098   0.480
  581SOL    HW1 1752   0.887   2.139   0.402
  581SOL    HW2 1753   1.034   2.096   0.461
  582SOL     OW 1754   1.076   2.545   1.464
  582SOL    HW1 1755   0.996   2.484   1.467
  582SOL    HW2 1756   1.157   2.492   1.440
  583SOL     OW 1757   1.227   3.432   0.793
  583SOL    HW1 1758   1.248   3.506   0.728
  583SOL    HW2 1759   1.295   3.432   0.866
  584SOL     OW 1760   0.459   3.014   0.741
  584SOL    HW1 1761   0.388   2.987   0.806
  584SOL    HW2 1762   0.433   2.986   0.648
  585SOL     OW 1763   1.271   3.659   0.591
  585SOL    HW1 1764   1.315   3.723   0.527
  585SOL    HW2 1765   1.221   3.711   0.661
  586SOL     OW 1766   1.032   2.411   0.016
  586SOL    HW1 1767   0.991   2.493  -0.023
  586SOL    HW2 1768   1.096   2.437   0.089
  587SOL     OW 1769   0.078   2.418   1.386
  587SOL    HW1 1770   0.170   2.417   1.345
  587SOL    HW2 1771   0.072   2.492   1.453
  588SOL     OW 1772   0.561   2.084   1.147
  588SOL    HW1 1773   0.599   2.000   1.184
  588SOL    HW2 1774   0.473   2.103   1.191
  589SOL     OW 1775   0.866   2.316   0.642
  589SOL    HW1 1776   0.834   2.388   0.580
  589SOL    HW2 1777   0.890   2.235   0.589
  590SOL     OW 1778   1.017   1.901   0.753
  590SOL    HW1 1779   0.945   1.906   0.684
  590SOL    HW2 1780   0.993   1.832   0.822
  591SOL     OW 1781   1.429   3.035   0.867
  591SOL    HW1 1782   1.374   2.951   0.860
  591SOL    HW2 1783   1.455   3.064   0.775
  592SOL     OW 1784   1.466   2.452   0.992
  592SOL    HW1 1785   1.436   2.357   0.999
  592SOL    HW2 1786   1.539   2.468   1.058
  593SOL     OW 1787   1.857   2.695   0.377
  593SOL    HW1 1788   1.899   2.631   0.441
  593SOL    HW2 1789   1.819   2.644   0.299
  594SOL     OW 1790   0.488   3.247   0.174
  594SOL    HW1 1791   0.401   3.232   0.221
  594SOL    HW2 1792   0.471   3.273   0.079
  595SOL     OW 1793   1.664   3.142   0.657
  595SOL    HW1 1794   1.763   3.150   0.671
  595SOL    HW2 1795   1.619   3.226   0.688
  596SOL     OW 1796   1.390   2.437   0.078
  596SOL    HW1 1797   1.336   2.416   0.159
  596SOL    HW2 1798   1.481   2.396   0.087
  597SOL     OW 1799   0.527   2.118   0.328
  597SOL    HW1 1800   0.554   2.059   0.253
  597SOL    HW2 1801   0.527   2.213   0.297
  598SOL     OW 1802   1.754   3.085   1.588
  598SOL    HW1 1803   1.845   3.046   1.575
  598SOL    HW2 1804   1.762   3.181   1.612
  599SOL     OW 1805   1.064   3.209   1.340
  599SOL    HW1 1806   0.984   3.186   1.395
  599SOL    HW2 1807   1.147   3.183   1.389
  600SOL     OW 1808   1.592   3.491   1.625
  600SOL    HW1 1809   1.619   3.525   1.535
  600SOL    HW2 1810   1.671   3.453   1.671
  601SOL     OW 1811   1.111   3.057   1.100
  601SOL    HW1 1812   1.071   3.101   1.181
  601SOL    HW2 1813   1.070   3.094   1.017
  602SOL     OW 1814   1.638   2.961   1.079
  602SOL    HW1 1815   1.643   3.042   1.138
  602SOL    HW2 1816   1.552   2.963   1.028
  603SOL     OW 1817   0.915   1.951   1.402
  603SOL    HW1 1818   0.940   1.931   1.307
  603SOL    HW2 1819   0.987   2.007   1.444
  604SOL     OW 1820   0.980   2.978   1.719
  604SOL    HW1 1821   0.881   2.984   1.729
  604SOL    HW2 1822   1.003   2.898   1.663
  605SOL     OW 1823   0.705   2.912   0.368
  605SOL    HW1 1824   0.691   2.919   0.467
  605SOL    HW2 1825   0.789   2.861   0.350
  606SOL     OW 1826   0.410   2.675   1.251
  606SOL    HW1 1827   0.496   2.687   1.301
  606SOL    HW2 1828   0.368   2.588   1.278
  607SOL     OW 1829   1.274   2.248   1.262
  607SOL    HW1 1830   1.295   2.322   1.326
  607SOL    HW2 1831   1.185   2.265   1.219
  608SOL     OW 1832   0.064   3.426   1.331
  608SOL    HW1 1833   0.018   3.508   1.297
  608SOL    HW2 1834   0.162   3.445   1.340
  609SOL     OW 1835   0.367   2.962   0.501
  609SOL    HW1 1836   0.360   3.045   0.445
  609SOL    HW2 1837   0.371   2.882   0.441
  610SOL     OW 1838   0.566   2.399   0.865
  610SOL    HW1 1839   0.578   2.465   0.791
  610SOL    HW2 1840   0.612   2.433   0.948
  611SOL     OW 1841   1.252   3.210   0.388
  611SOL    HW1 1842   1.302   3.287   0.428
  611SOL    HW2 1843   1.157   3.212   0.420
  612SOL     OW 1844   1.272   3.307   1.142
  612SOL    HW1 1845   1.319   3.320   1.229
  612SOL    HW2 1846   1.206   3.233   1.151
  613SOL     OW 1847   1.582   2.501   0.472
  613SOL    HW1 1848   1.551   2.562   0.545
  613SOL    HW2 1849   1.632   2.553   0.403
  614SOL     OW 1850   0.354   3.372   1.329
  614SOL    HW1 1851   0.333   3.328   1.242
  614SOL    HW2 1852   0.451   3.398   1.332
  615SOL     OW 1853   0.402   2.613   1.598
  615SOL    HW1 1854   0.470   2.668   1.551
  615SOL    HW2 1855   0.442   2.525   1.625
  616SOL     OW 1856   1.587   2.641   1.670
  616SOL    HW1 1857   1.495   2.679   1.665
  616SOL    HW2 1858   1.647   2.688   1.605
  617SOL     OW 1859   1.013   1.967   1.770
  617SOL    HW1 1860   1.019   2.052   1.718
  617SOL    HW2 1861   1.045   1.891   1.713
  618SOL     OW 1862   0.504   1.912   1.740
  618SOL    HW1 1863   0.462   1.855   1.670
  618SOL    HW2 1864   0.438   1.981   1.772
  619SOL     OW 1865   0.573   2.732   1.029
  619SOL    HW1 1866   0.617   2.821   1.020
  619SOL    HW2 1867   0.510   2.732   1.106
  620SOL     OW 1868   1.360   2.724   1.045
  620SOL    HW1 1869   1.285   2.724   0.979
  620SOL    HW2 1870   1.397   2.632   1.054
  621SOL     OW 1871   1.209   2.387   0.275
  621SOL    HW1 1872   1.222   2.303   0.329
  621SOL    HW2 1873   1.180   2.461   0.335
  622SOL     OW 1874   0.307   2.075   1.231
  622SOL    HW1 1875   0.284   2.112   1.321
  622SOL    HW2 1876   0.277   1.980   1.225
  623SOL     OW 1877   0.037   3.172   1.282
  623SOL    HW1 1878   0.090   3.123   1.350
  623SOL    HW2 1879   0.059   3.270   1.287
  624SOL     OW 1880   0.732   2.496   1.064
  624SOL    HW1 1881   0.791   2.470   0.988
  624SOL    HW2 1882   0.704   2.592   1.053
  625SOL     OW 1883   1.728   2.797   1.854
  625SOL    HW1 1884   1.682   2.790   1.765
  625SOL    HW2 1885   1.666   2.841   1.920
  626SOL     OW 1886   0.307   1.925   0.618
  626SOL    HW1 1887   0.296   2.019   0.651
  626SOL    HW2 1888   0.302   1.862   0.695
  627SOL     OW 1889   1.622   2.229   0.374
  627SOL    HW1 1890   1.624   2.153   0.438
  627SOL    HW2 1891   1.574   2.306   0.414
  628SOL     OW 1892   1.023   2.628   0.966
  628SOL    HW1 1893   1.038   2.649   1.062
  628SOL    HW2 1894   0.993   2.533   0.957
  629SOL     OW 1895   0.980   3.435   1.700
  629SOL    HW1 1896   0.960   3.479   1.612
  629SOL    HW2 1897   1.019   3.344   1.684
  630SOL     OW 1898   1.859   3.380   1.605
  630SOL    HW1 1899   1.873   3.407   1.510
  630SOL    HW2 1900   1.942   3.402   1.658
  631SOL     OW 1901   0.350   2.760   1.804
  631SOL    HW1 1902   0.426   2.804   1.852
  631SOL    HW2 1903   0.385   2.713   1.722
  632SOL     OW 1904   1.540   2.136   0.125
  632SOL    HW1 1905   1.479   2.061   0.148
  632SOL    HW2 1906   1.562   2.188   0.208
  633SOL     OW 1907   1.303   2.700   0.042
  633SOL    HW1 1908   1.337   2.607   0.057
  633SOL    HW2 1909   1.321   2.727  -0.053
  634SOL     OW 1910   1.068   3.195   0.849
  634SOL    HW1 1911   1.075   3.111   0.794
  634SOL    HW2 1912   1.130   3.264   0.813
  635SOL     OW 1913   0.319   2.672   0.949
  635SOL    HW1 1914   0.412   2.708   0.954
  635SOL    HW2 1915   0.313   2.587   1.001
  636SOL     OW 1916   0.339   2.371   1.006
  636SOL    HW1 1917   0.287   2.288   0.989
  636SOL    HW2 1918   0.416   2.376   0.942
  637SOL     OW 1919   1.138   2.242   1.678
  637SOL    HW1 1920   1.093   2.305   1.742
  637SOL    HW2 1921   1.231   2.273   1.661
  638SOL     OW 1922   1.160   2.069   1.477
  638SOL    HW1 1923   1.160   2.133   1.554
  638SOL    HW2 1924   1.188   2.117   1.394
  639SOL     OW 1925   0.008   3.188   0.200
  639SOL    HW1 1926  -0.085   3.209   0.169
  639SOL    HW2 1927   0.018   3.089   0.213
  640SOL     OW 1928   0.088   3.663   0.927
  640SOL    HW1 1929   0.046   3.577   0.900
  640SOL    HW2 1930   0.182   3.666   0.893
  641SOL     OW 1931   0.504   3.430   0.910
  641SOL    HW1 1932   0.570   3.504   0.919
  641SOL    HW2 1933   0.548   3.351   0.868
  642SOL     OW 1934   1.002   2.658   1.238
  642SOL    HW1 1935   1.043   2.626   1.324
  642SOL    HW2 1936   0.906   2.631   1.235
  643SOL     OW 1937   0.040   2.406   1.114
  643SOL    HW1 1938   0.125   2.373   1.073
  643SOL    HW2 1939   0.053   2.421   1.212
  644SOL     OW 1940   0.189   2.382   1.722
  644SOL    HW1 1941   0.248   2.342   1.652
  644SOL    HW2 1942   0.131   2.453   1.681
  645SOL     OW 1943   1.369   2.812   1.660
  645SOL    HW1 1944   1.408   2.901   1.680
  645SOL    HW2 1945   1.379   2.792   1.563
  646SOL     OW 1946   0.815   2.434   0.325
  646SOL    HW1 1947   0.822   2.345   0.279
  646SOL    HW2 1948   0.721   2.468   0.317
  647SOL     OW 1949   1.657   2.466   1.206
  647SOL    HW1 1950   1.619   2.397   1.268
  647SOL    HW2 1951   1.739   2.430   1.162
  648SOL     OW 1952   0.252   3.426   1.744
  648SOL    HW1 1953   0.222   3.483   1.820
  648SOL    HW2 1954   0.245   3.329   1.770
  649SOL     OW 1955   0.671   2.326   1.269
  649SOL    HW1 1956   0.637   2.237   1.239
  649SOL    HW2 1957   0.697   2.380   1.189
  650SOL     OW 1958   0.930   3.540   1.465
  650SOL    HW1 1959   0.906   3.522   1.370
  650SOL    HW2 1960   0.960   3.634   1.475
  651SOL     OW 1961   0.473   2.362   0.191
  651SOL    HW1 1962   0.534   2.442   0.195
  651SOL    HW2 1963   0.378   2.393   0.198
  652SOL     OW 1964   0.159   2.999   1.466
  652SOL    HW1 1965   0.181   2.938   1.542
  652SOL    HW2 1966   0.169   2.950   1.380
  653SOL     OW 1967   1.347   2.921   1.234
  653SOL    HW1 1968   1.371   2.858   1.160
  653SOL    HW2 1969   1.257   2.961   1.216
  654SOL     OW 1970   1.302   2.717   0.309
  654SOL    HW1 1971   1.216   2.686   0.351
  654SOL    HW2 1972   1.298   2.703   0.210
  655SOL     OW 1973   1.759   3.609   1.154
  655SOL    HW1 1974   1.820   3.639   1.081
  655SOL    HW2 1975   1.721   3.520   1.132
  656SOL     OW 1976   1.252   3.593   1.128
  656SOL    HW1 1977   1.336   3.598   1.074
  656SOL    HW2 1978   1.229   3.497   1.146
  657SOL     OW 1979   0.083   3.120   1.022
  657SOL    HW1 1980   0.078   3.119   1.122
  657SOL    HW2 1981   0.000   3.079   0.984
  658SOL     OW 1982   0.688   3.524   1.716
  658SOL    HW1 1983   0.632   3.605   1.725
  658SOL    HW2 1984   0.740   3.528   1.630
  659SOL     OW 1985   0.903   1.948   0.133
  659SOL    HW1 1986   0.954   1.949   0.047
  659SOL    HW2 1987   0.959   1.906   0.204
  660SOL     OW 1988   1.726   1.997   0.523
  660SOL    HW1 1989   1.799   1.980   0.456
  660SOL    HW2 1990   1.695   1.910   0.561
  661SOL     OW 1991   1.388   3.435   0.477
  661SOL    HW1 1992   1.455   3.447   0.403
  661SOL    HW2 1993   1.348   3.524   0.500
  662SOL     OW 1994   0.130   3.656   1.851
  662SOL    HW1 1995   0.089   3.582   1.904
  662SOL    HW2 1996   0.194   3.707   1.909
  663SOL     OW 1997   1.280   2.789   0.672
  663SOL    HW1 1998   1.340   2.708   0.674
  663SOL    HW2 1999   1.320   2.858   0.612
  664SOL     OW 2000   0.830   3.135   1.422
  664SOL    HW1 2001   0.825   3.168   1.517
  664SOL    HW2 2002   0.744   3.154   1.376
  665SOL     OW 2003   0.672   3.478   0.154
  665SOL    HW1 2004   0.681   3.488   0.055
  665SOL    HW2 2005   0.632   3.389   0.175
  666SOL     OW 2006   1.650   3.582   1.394
  666SOL    HW1 2007   1.703   3.592   1.310
  666SOL    HW2 2008   1.623   3.672   1.428
  667SOL     OW 2009   1.841   2.037   0.963
  667SOL    HW1 2010   1.880   1.952   0.927
  667SOL    HW2 2011   1.743   2.039   0.944
  668SOL     OW 2012   0.263   2.188   0.720
  668SOL    HW1 2013   0.184   2.239   0.686
  668SOL    HW2 2014   0.254   2.173   0.818
  669SOL     OW 2015   1.194   3.474   0.031
  669SOL    HW1 2016   1.200   3.381   0.068
  669SOL    HW2 2017   1.135   3.474  -0.049
  670SOL     OW 2018   0.822   2.864   1.372
  670SOL    HW1 2019   0.862   2.863   1.280
  670SOL    HW2 2020   0.832   2.956   1.412
  671SOL     OW 2021   0.916   2.772   0.291
  671SOL    HW1 2022   0.979   2.810   0.223
  671SOL    HW2 2023   0.956   2.689   0.330
  672SOL     OW 2024   1.504   3.469   0.044
  672SOL    HW1 2025   1.412   3.506   0.051
  672SOL    HW2 2026   1.542   3.489  -0.046
  673SOL     OW 2027   0.372   3.150   1.490
  673SOL    HW1 2028   0.359   3.243   1.456
  673SOL    HW2 2029   0.288   3.098   1.477
  674SOL     OW 2030   1.614   3.154   1.289
  674SOL    HW1 2031   1.674   3.157   1.369
  674SOL    HW2 2032   1.539   3.218   1.302
  675SOL     OW 2033   1.039   2.960   0.696
  675SOL    HW1 2034   0.969   2.913   0.750
  675SOL    HW2 2035   1.098   2.892   0.653
  676SOL     OW 2036   1.014   2.098   0.971
  676SOL    HW1 2037   1.006   2.062   0.878
  676SOL    HW2 2038   1.012   2.022   1.036
  677SOL     OW 2039   0.590   3.349   0.491
  677SOL    HW1 2040   0.632   3.291   0.421
  677SOL    HW2 2041   0.546   3.428   0.447
  678SOL     OW 2042   1.709   2.247   1.381
  678SOL    HW1 2043   1.782   2.316   1.385
  678SOL    HW2 2044   1.737   2.172   1.322
  679SOL     OW 2045   0.255   3.210   0.290
  679SOL    HW1 2046   0.159   3.211   0.263
  679SOL    HW2 2047   0.267   3.263   0.374
  680SOL     OW 2048   0.105   2.875   1.726
  680SOL    HW1 2049   0.028   2.842   1.780
  680SOL    HW2 2050   0.190   2.845   1.768
  681SOL     OW 2051   0.672   2.065   1.489
  681SOL    HW1 2052   0.762   2.049   1.449
  681SOL    HW2 2053   0.680   2.070   1.588
  682SOL     OW 2054   0.075   2.207   0.033
  682SOL    HW1 2055  -0.017   2.179   0.004
  682SOL    HW2 2056   0.106   2.284  -0.023
  683SOL     OW 2057   1.440   2.718   1.398
  683SOL    HW1 2058   1.383   2.770   1.335
  683SOL    HW2 2059   1.536   2.730   1.374
  684SOL     OW 2060   0.072   2.028   0.318
  684SOL    HW1 2061   0.055   2.111   0.264
  684SOL    HW2 2062   0.162   1.991   0.296
  685SOL     OW 2063   1.183   3.197   0.119
  685SOL    HW1 2064   1.084   3.186   0.121
  685SOL    HW2 2065   1.217   3.212   0.212
  686SOL     OW 2066   0.613   2.704   1.431
  686SOL    HW1 2067   0.669   2.785   1.414
  686SOL    HW2 2068   0.672   2.624   1.434
  687SOL     OW 2069   1.493   3.629   0.959
  687SOL    HW1 2070   1.526   3.693   0.890
  687SOL    HW2 2071   1.559   3.623   1.034
  688SOL     OW 2072   0.716   2.427   1.708
  688SOL    HW1 2073   0.735   2.492   1.782
  688SOL    HW2 2074   0.776   2.347   1.717
  689SOL     OW 2075   1.450   3.082   1.633
  689SOL    HW1 2076   1.441   3.072   1.732
  689SOL    HW2 2077   1.546   3.075   1.607
  690SOL     OW 2078   0.390   3.603   1.560
  690SOL    HW1 2079   0.299   3.644   1.558
  690SOL    HW2 2080   0.383   3.509   1.592
  691SOL     OW 2081   1.674   2.745   1.254
  691SOL    HW1 2082   1.647   2.656   1.217
  691SOL    HW2 2083   1.675   2.813   1.181
  692SOL     OW 2084   1.225   2.187   0.449
  692SOL    HW1 2085   1.290   2.113   0.438
  692SOL    HW2 2086   1.245   2.237   0.533
  693SOL     OW 2087   0.594   2.607   0.652
  693SOL    HW1 2088   0.644   2.692   0.633
  693SOL    HW2 2089   0.506   2.609   0.604
  694SOL     OW 2090   1.777   2.204   1.642
  694SOL    HW1 2091   1.760   2.235   1.548
  694SOL    HW2 2092   1.693   2.167   1.680
  695SOL     OW 2093   1.730   2.796   1.517
  695SOL    HW1 2094   1.768   2.887   1.532
  695SOL    HW2 2095   1.722   2.779   1.418
  696SOL     OW 2096   0.859   3.236   0.016
  696SOL    HW1 2097   0.813   3.251   0.104
  696SOL    HW2 2098   0.903   3.321  -0.014
  697SOL     OW 2099   0.661   3.652   0.953
  697SOL    HW1 2100   0.615   3.740   0.940
  697SOL    HW2 2101   0.760   3.664   0.946
  698SOL     OW 2102   0.859   2.818   0.861
  698SOL    HW1 2103   0.913   2.749   0.909
  698SOL    HW2 2104   0.827   2.887   0.927
  699SOL     OW 2105   1.083   2.846   0.087
  699SOL    HW1 2106   1.060   2.899   0.005
  699SOL    HW2 2107   1.164   2.790   0.068
  700SOL     OW 2108   1.861   3.431   0.851
  700SOL    HW1 2109   1.790   3.419   0.781
  700SOL    HW2 2110   1.862   3.352   0.911
  701SOL     OW 2111   0.221   3.176   1.844
  701SOL    HW1 2112   0.156   3.103   1.823
  701SOL    HW2 2113   0.225   3.190   1.942
  702SOL     OW 2114   0.079   3.102   0.653
  702SOL    HW1 2115   0.078   3.055   0.741
  702SOL    HW2 2116   0.161   3.074   0.602
  703SOL     OW 2117   0.672   3.253   1.624
  703SOL    HW1 2118   0.594   3.203   1.662
  703SOL    HW2 2119   0.669   3.348   1.655
  704SOL     OW 2120   1.824   2.054   1.227
  704SOL    HW1 2121   1.820   1.964   1.271
  704SOL    HW2 2122   1.827   2.043   1.128
  705SOL     OW 2123   0.428   2.286   0.520
  705SOL    HW1 2124   0.458   2.214   0.458
  705SOL    HW2 2125   0.389   2.246   0.603
  706SOL     OW 2126   1.705   3.349   1.104
  706SOL    HW1 2127   1.612   3.324   1.077
  706SOL    HW2 2128   1.731   3.299   1.186
  707SOL     OW 2129   0.317   2.409   1.280
  707SOL    HW1 2130   0.355   2.350   1.352
  707SOL    HW2 2131   0.357   2.383   1.192
  708SOL     OW 2132   0.812   3.448   0.687
  708SOL    HW1 2133   0.844   3.458   0.593
  708SOL    HW2 2134   0.733   3.386   0.689
  709SOL     OW 2135   1.424   2.076   1.112
  709SOL    HW1 2136   1.476   2.011   1.167
  709SOL    HW2 2137   1.375   2.139   1.173
  710SOL     OW 2138   1.001   1.896   1.154
  710SOL    HW1 2139   0.938   1.824   1.123
  710SOL    HW2 2140   1.094   1.860   1.154
  711SOL     OW 2141   0.770   3.192   0.301
  711SOL    HW1 2142   0.724   3.105   0.318
  711SOL    HW2 2143   0.861   3.189   0.342
  712SOL     OW 2144   0.618   3.429   1.284
  712SOL    HW1 2145   0.613   3.511   1.341
  712SOL    HW2 2146   0.707   3.426   1.239
  713SOL     OW 2147   1.352   1.914   0.168
  713SOL    HW1 2148   1.387   1.873   0.084
  713SOL    HW2 2149   1.262   1.876   0.188
  714SOL     OW 2150   1.300   2.315   0.691
  714SOL    HW1 2151   1.241   2.395   0.695
  714SOL    HW2 2152   1.315   2.280   0.784
  715SOL     OW 2153   1.593   2.083   0.882
  715SOL    HW1 2154   1.509   2.082   0.936
  715SOL    HW2 2155   1.595   2.166   0.826
  716SOL     OW 2156   0.039   2.939   0.300
  716SOL    HW1 2157   0.138   2.928   0.291
  716SOL    HW2 2158  -0.001   2.853   0.332
  717SOL     OW 2159   0.875   3.508   0.337
  717SOL    HW1 2160   0.798   3.473   0.283
  717SOL    HW2 2161   0.843   3.579   0.399
  718SOL     OW 2162   0.230   2.490   1.975
  718SOL    HW1 2163   0.137   2.488   2.012
  718SOL    HW2 2164   0.231   2.451   1.883
  719SOL     OW 2165   0.225   2.137   2.858
  719SOL    HW1 2166   0.260   2.120   2.950
  719SOL    HW2 2167   0.137   2.092   2.846
  720SOL     OW 2168   0.019   2.230   2.509
  720SOL    HW1 2169  -0.063   2.273   2.548
  720SOL    HW2 2170  -0.009   2.157   2.446
  721SOL     OW 2171   0.569   3.137   3.027
  721SOL    HW1 2172   0.476   3.130   2.990
  721SOL    HW2 2173   0.580   3.226   3.071
  722SOL     OW 2174   1.555   3.373   2.565
  722SOL    HW1 2175   1.498   3.357   2.646
  722SOL    HW2 2176   1.496   3.383   2.485
  723SOL     OW 2177   1.135   2.565   2.579
  723SOL    HW1 2178   1.192   2.643   2.554
  723SOL    HW2 2179   1.075   2.591   2.655
  724SOL     OW 2180   1.755   2.469   2.093
  724SOL    HW1 2181   1.743   2.456   1.994
  724SOL    HW2 2182   1.725   2.388   2.142
  725SOL     OW 2183   0.768   3.006   2.885
  725SOL    HW1 2184   0.690   3.023   2.945
  725SOL    HW2 2185   0.802   3.093   2.849
  726SOL     OW 2186   0.850   2.660   3.685
  726SOL    HW1 2187   0.846   2.736   3.750
  726SOL    HW2 2188   0.872   2.696   3.594
  727SOL     OW 2189   0.685   2.874   2.527
  727SOL    HW1 2190   0.754   2.858   2.597
  727SOL    HW2 2191   0.612   2.931   2.565
  728SOL     OW 2192   0.686   3.023   3.665
  728SOL    HW1 2193   0.746   3.102   3.679
  728SOL    HW2 2194   0.600   3.054   3.624
  729SOL     OW 2195   0.335   3.297   2.923
  729SOL    HW1 2196   0.257   3.266   2.870
  729SOL    HW2 2197   0.393   3.355   2.866
  730SOL     OW 2198   1.460   3.367   3.201
  730SOL    HW1 2199   1.484   3.461   3.227
  730SOL    HW2 2200   1.444   3.313   3.283
  731SOL     OW 2201   0.438   2.254   3.361
  731SOL    HW1 2202   0.520   2.198   3.370
  731SOL    HW2 2203   0.357   2.196   3.365
  732SOL     OW 2204   1.603   2.309   2.599
  732SOL    HW1 2205   1.529   2.355   2.549
  732SOL    HW2 2206   1.654   2.377   2.652
  733SOL     OW 2207   0.231   3.575   2.345
  733SOL    HW1 2208   0.265   3.652   2.399
  733SOL    HW2 2209   0.275   3.575   2.255
  734SOL     OW 2210   1.127   3.203   3.552
  734SOL    HW1 2211   1.174   3.203   3.640
  734SOL    HW2 2212   1.079   3.116   3.541
  735SOL     OW 2213   0.230   3.296   2.400
  735SOL    HW1 2214   0.204   3.392   2.400
  735SOL    HW2 2215   0.159   3.242   2.445
  736SOL     OW 2216   0.240   2.953   2.748
  736SOL    HW1 2217   0.254   2.869   2.800
  736SOL    HW2 2218   0.185   3.017   2.803
  737SOL     OW 2219   0.620   3.648   3.301
  737SOL    HW1 2220   0.528   3.631   3.336
  737SOL    HW2 2221   0.648   3.740   3.327
  738SOL     OW 2222   0.606   2.826   1.985
  738SOL    HW1 2223   0.613   2.910   1.931
  738SOL    HW2 2224   0.652   2.839   2.073
  739SOL     OW 2225   1.594   1.976   3.342
  739SOL    HW1 2226   1.576   2.043   3.270
  739SOL    HW2 2227   1.591   2.022   3.431
  740SOL     OW 2228   0.122   2.505   2.425
  740SOL    HW1 2229   0.077   2.417   2.442
  740SOL    HW2 2230   0.121   2.559   2.509
  741SOL     OW 2231   1.842   3.629   2.221
  741SOL    HW1 2232   1.896   3.600   2.301
  741SOL    HW2 2233   1.872   3.719   2.192
  742SOL     OW 2234   0.027   3.458   1.979
  742SOL    HW1 2235   0.008   3.362   2.000
  742SOL    HW2 2236  -0.006   3.516   2.054
  743SOL     OW 2237   1.689   2.784   2.474
  743SOL    HW1 2238   1.784   2.755   2.482
  743SOL    HW2 2239   1.681   2.849   2.399
  744SOL     OW 2240   1.641   2.970   2.294
  744SOL    HW1 2241   1.727   2.972   2.242
  744SOL    HW2 2242   1.655   3.017   2.382
  745SOL     OW 2243   0.113   2.599   3.459
  745SOL    HW1 2244   0.201   2.586   3.504
  745SOL    HW2 2245   0.100   2.696   3.437
  746SOL     OW 2246   0.613   3.227   2.588
  746SOL    HW1 2247   0.564   3.140   2.597
  746SOL    HW2 2248   0.590   3.270   2.501
  747SOL     OW 2249   1.293   3.090   3.285
  747SOL    HW1 2250   1.330   3.017   3.227
  747SOL    HW2 2251   1.345   3.095   3.370
  748SOL     OW 2252   0.809   1.866   2.364
  748SOL    HW1 2253   0.849   1.957   2.355
  748SOL    HW2 2254   0.709   1.874   2.370
  749SOL     OW 2255   0.197   2.838   3.126
  749SOL    HW1 2256   0.286   2.793   3.112
  749SOL    HW2 2257   0.124   2.773   3.107
  750SOL     OW 2258   1.525   2.861   2.052
  750SOL    HW1 2259   1.462   2.785   2.065
  750SOL    HW2 2260   1.573   2.879   2.138
  751SOL     OW 2261   1.187   3.654   3.478
  751SOL    HW1 2262   1.211   3.714   3.402
  751SOL    HW2 2263   1.194   3.559   3.448
  752SOL     OW 2264   0.317   2.113   3.663
  752SOL    HW1 2265   0.388   2.184   3.669
  752SOL    HW2 2266   0.229   2.152   3.691
  753SOL     OW 2267   1.466   3.279   2.815
  753SOL    HW1 2268   1.407   3.285   2.895
  753SOL    HW2 2269   1.451   3.191   2.769
  754SOL     OW 2270   1.667   3.576   2.434
  754SOL    HW1 2271   1.626   3.553   2.346
  754SOL    HW2 2272   1.649   3.502   2.499
  755SOL     OW 2273   0.598   2.591   2.132
  755SOL    HW1 2274   0.622   2.660   2.064
  755SOL    HW2 2275   0.520   2.624   2.186
  756SOL     OW 2276   1.281   2.207   2.806
  756SOL    HW1 2277   1.195   2.157   2.793
  756SOL    HW2 2278   1.343   2.153   2.862
  757SOL     OW 2279   1.576   3.524   2.169
  757SOL    HW1 2280   1.665   3.570   2.172
  757SOL    HW2 2281   1.555   3.500   2.074
  758SOL     OW 2282   0.807   2.467   3.327
  758SOL    HW1 2283   0.760   2.464   3.416
  758SOL    HW2 2284   0.756   2.412   3.261
  759SOL     OW 2285   1.394   2.331   3.536
  759SOL    HW1 2286   1.374   2.374   3.624
  759SOL    HW2 2287   1.472   2.269   3.545
  760SOL     OW 2288   0.973   2.752   3.434
  760SOL    HW1 2289   1.019   2.668   3.405
  760SOL    HW2 2290   0.917   2.786   3.359
  761SOL     OW 2291   0.991   2.272   3.104
  761SOL    HW1 2292   0.914   2.306   3.158
  761SOL    HW2 2293   0.957   2.221   3.025
  762SOL     OW 2294   1.041   2.563   2.291
  762SOL    HW1 2295   1.067   2.559   2.387
  762SOL    HW2 2296   0.956   2.512   2.277
  763SOL     OW 2297   0.076   2.673   2.651
  763SOL    HW1 2298   0.175   2.661   2.660
  763SOL    HW2 2299   0.052   2.768   2.672
  764SOL     OW 2300   0.130   3.683   3.433
  764SOL    HW1 2301   0.120   3.668   3.532
  764SOL    HW2 2302   0.044   3.719   3.397
  765SOL     OW 2303   0.865   2.210   2.057
  765SOL    HW1 2304   0.924   2.273   2.008
  765SOL    HW2 2305   0.884   2.116   2.028
  766SOL     OW 2306   1.719   2.447   3.693
  766SOL    HW1 2307   1.693   2.536   3.657
  766SOL    HW2 2308   1.717   2.379   3.620
  767SOL     OW 2309   1.362   3.006   2.407
  767SOL    HW1 2310   1.445   2.977   2.359
  767SOL    HW2 2311   1.313   3.073   2.351
  768SOL     OW 2312   0.550   2.058   2.747
  768SOL    HW1 2313   0.545   2.053   2.847
  768SOL    HW2 2314   0.552   2.154   2.718
  769SOL     OW 2315   1.008   3.318   2.339
  769SOL    HW1 2316   0.962   3.390   2.287
  769SOL    HW2 2317   1.004   3.338   2.437
  770SOL     OW 2318   0.351   3.663   2.715
  770SOL    HW1 2319   0.401   3.577   2.721
  770SOL    HW2 2320   0.416   3.740   2.712
  771SOL     OW 2321   1.795   2.928   2.735
  771SOL    HW1 2322   1.733   2.913   2.659
  771SOL    HW2 2323   1.743   2.939   2.820
  772SOL     OW 2324   1.227   3.412   3.368
  772SOL    HW1 2325   1.233   3.335   3.432
  772SOL    HW2 2326   1.175   3.386   3.288
  773SOL     OW 2327   0.321   2.805   2.104
  773SOL    HW1 2328   0.403   2.844   2.062
  773SOL    HW2 2329   0.294   2.723   2.055
  774SOL     OW 2330   1.458   2.597   2.590
  774SOL    HW1 2331   1.453   2.532   2.665
  774SOL    HW2 2332   1.538   2.656   2.603
  775SOL     OW 2333   0.461   3.128   3.589
  775SOL    HW1 2334   0.411   3.129   3.503
  775SOL    HW2 2335   0.398   3.110   3.665
  776SOL     OW 2336   1.111   3.638   2.099
  776SOL    HW1 2337   1.051   3.576   2.149
  776SOL    HW2 2338   1.142   3.594   2.014
  777SOL     OW 2339   0.202   2.147   3.360
  777SOL    HW1 2340   0.122   2.207   3.347
  777SOL    HW2 2341   0.192   2.098   3.446
  778SOL     OW 2342   1.632   3.239   1.943
  778SOL    HW1 2343   1.600   3.333   1.933
  778SOL    HW2 2344   1.556   3.176   1.931
  779SOL     OW 2345   0.464   3.605   2.185
  779SOL    HW1 2346   0.497   3.644   2.271
  779SOL    HW2 2347   0.540   3.598   2.120
  780SOL     OW 2348   1.400   1.969   2.288
  780SOL    HW1 2349   1.376   1.932   2.198
  780SOL    HW2 2350   1.499   1.985   2.292
  781SOL     OW 2351   0.249   3.647   3.103
  781SOL    HW1 2352   0.306   3.582   3.153
  781SOL    HW2 2353   0.233   3.614   3.010
  782SOL     OW 2354   0.940   3.560   2.766
  782SOL    HW1 2355   1.020   3.503   2.787
  782SOL    HW2 2356   0.891   3.520   2.689
  783SOL     OW 2357   0.382   2.562   2.342
  783SOL    HW1 2358   0.427   2.472   2.339
  783SOL    HW2 2359   0.288   2.551   2.375
  784SOL     OW 2360   1.547   2.084   3.591
  784SOL    HW1 2361   1.542   2.121   3.683
  784SOL    HW2 2362   1.475   2.015   3.579
  785SOL     OW 2363   0.614   1.984   1.979
  785SOL    HW1 2364   0.712   1.962   1.986
  785SOL    HW2 2365   0.583   1.967   1.886
  786SOL     OW 2366   0.781   2.126   3.611
  786SOL    HW1 2367   0.848   2.065   3.654
  786SOL    HW2 2368   0.708   2.145   3.676
  787SOL     OW 2369   0.888   3.376   3.057
  787SOL    HW1 2370   0.865   3.351   2.963
  787SOL    HW2 2371   0.949   3.307   3.096
  788SOL     OW 2372   1.351   2.452   3.295
  788SOL    HW1 2373   1.379   2.409   3.380
  788SOL    HW2 2374   1.376   2.548   3.296
  789SOL     OW 2375   0.803   3.264   2.786
  789SOL    HW1 2376   0.893   3.278   2.744
  789SOL    HW2 2377   0.732   3.266   2.715
  790SOL     OW 2378   0.922   2.365   2.761
  790SOL    HW1 2379   0.897   2.356   2.665
  790SOL    HW2 2380   0.970   2.283   2.792
  791SOL     OW 2381   0.539   1.926   2.374
  791SOL    HW1 2382   0.458   1.927   2.432
  791SOL    HW2 2383   0.542   2.009   2.319
  792SOL     OW 2384   1.434   3.050   1.903
  792SOL    HW1 2385   1.466   2.974   1.960
  792SOL    HW2 2386   1.342   3.077   1.933
  793SOL     OW 2387   0.297   1.897   2.033
  793SOL    HW1 2388   0.346   1.981   2.012
  793SOL    HW2 2389   0.359   1.832   2.078
  794SOL     OW 2390   0.935   2.098   2.342
  794SOL    HW1 2391   0.887   2.139   2.264
  794SOL    HW2 2392   1.034   2.096   2.323
  795SOL     OW 2393   1.076   2.545   3.326
  795SOL    HW1 2394   0.996   2.484   3.329
  795SOL    HW2 2395   1.157   2.492   3.302
  796SOL     OW 2396   1.227   3.432   2.655
  796SOL    HW1 2397   1.248   3.506   2.590
  796SOL    HW2 2398   1.295   3.432   2.728
  797SOL     OW 2399   0.459   3.014   2.603
  797SOL    HW1 2400   0.388   2.987   2.668
  797SOL    HW2 2401   0.433   2.986   2.510
  798SOL     OW 2402   1.271   3.659   2.453
  798SOL    HW1 2403   1.315   3.723   2.389
  798SOL    HW2 2404   1.221   3.711   2.523
  799SOL     OW 2405   1.032   2.411   1.878
  799SOL    HW1 2406   0.991   2.493   1.839
  799SOL    HW2 2407   1.096   2.437   1.951
  800SOL     OW 2408   0.078   2.418   3.248
  800SOL    HW1 2409   0.170   2.417   3.207
  800SOL    HW2 2410   0.072   2.492   3.315
  801SOL     OW 2411   0.561   2.084   3.009
  801SOL    HW1 2412   0.599   2.000   3.046
  801SOL    HW2 2413   0.473   2.103   3.053
  802SOL     OW 2414   0.866   2.316   2.504
  802SOL    HW1 2415   0.834   2.388   2.442
  802SOL    HW2 2416   0.890   2.235   2.451
  803SOL     OW 2417   1.017   1.901   2.615
  803SOL    HW1 2418   0.945   1.906   2.546
  803SOL    HW2 2419   0.993   1.832   2.684
  804SOL     OW 2420   1.429   3.035   2.729
  804SOL    HW1 2421   1.374   2.951   2.722
  804SOL    HW2 2422   1.455   3.064   2.637
  805SOL     OW 2423   1.466   2.452   2.854
  805SOL    HW1 2424   1.436   2.357   2.861
  805SOL    HW2 2425   1.539   2.468   2.920
  806SOL     OW 2426   1.857   2.695   2.239
  806SOL    HW1 2427   1.899   2.631   2.303
  806SOL    HW2 2428   1.819   2.644   2.161
  807SOL     OW 2429   0.488   3.247   2.036
  807SOL    HW1 2430   0.401   3.232   2.083
  807SOL    HW2 2431   0.471   3.273   1.941
  808SOL     OW 2432   1.664   3.142   2.519
  808SOL    HW1 2433   1.763   3.150   2.533
  808SOL    HW2 2434   1.619   3.226   2.550
  809SOL     OW 2435   1.390   2.437   1.940
  809SOL    HW1 2436   1.336   2.416   2.021
  809SOL    HW2 2437   1.481   2.396   1.949
  810SOL     OW 2438   0.527   2.118   2.190
  810SOL    HW1 2439   0.554   2.059   2.115
  810SOL    HW2 2440   0.527   2.213   2.159
  811SOL     OW 2441   1.754   3.085   3.450
  811SOL    HW1 2442   1.845   3.046   3.437
  811SOL    HW2 2443   1.762   3.181   3.474
  812SOL     OW 2444   1.064   3.209   3.202
  812SOL    HW1 2445   0.984   3.186   3.257
  812SOL    HW2 2446   1.147   3.183   3.251
  813SOL     OW 2447   1.592   3.491   3.487
  813SOL    HW1 2448   1.619   3.525   3.397
  813SOL    HW2 2449   1.671   3.453   3.533
  814SOL     OW 2450   1.111   3.057   2.962
  814SOL    HW1 2451   1.071   3.101   3.043
  814SOL    HW2 2452   1.070   3.094   2.879
  815SOL     OW 2453   1.638   2.961   2.941
  815SOL    HW1 2454   1.643   3.042   3.000
  815SOL    HW2 2455   1.552   2.963   2.890
  816SOL     OW 2456   0.915   1.951   3.264
  816SOL    HW1 2457   0.940   1.931   3.169
  816SOL    HW2 2458   0.987   2.007   3.306
  817SOL     OW 2459   0.980   2.978   3.581
  817SOL    HW1 2460   0.881   2.984   3.591
  817SOL    HW2 2461   1.003   2.898   3.525
  818SOL     OW 2462   0.705   2.912   2.230
  818SOL    HW1 2463   0.691   2.919   2.329
  818SOL    HW2 2464   0.789   2.861   2.212
  819SOL     OW 2465   0.410   2.675   3.113
  819SOL    HW1 2466   0.496   2.687   3.163
  819SOL    HW2 2467   0.368   2.588   3.140
  820SOL     OW 2468   1.274   2.248   3.124
  820SOL    HW1 2469   1.295   2.322   3.188
  820SOL    HW2 2470   1.185   2.265   3.081
  821SOL     OW 2471   0.064   3.426   3.193
  821SOL    HW1 2472   0.018   3.508   3.159
  821SOL    HW2 2473   0.162   3.445   3.202
  822SOL     OW 2474   0.367   2.962   2.363
  822SOL    HW1 2475   0.360   3.045   2.307
  822SOL    HW2 2476   0.371   2.882   2.303
  823SOL     OW 2477   0.566   2.399   2.727
  823SOL    HW1 2478   0.578   2.465   2.653
  823SOL    HW2 2479   0.612   2.433   2.810
  824SOL     OW 2480   1.252   3.210   2.250
  824SOL    HW1 2481   1.302   3.287   2.290
  824SOL    HW2 2482   1.157   3.212   2.282
  825SOL     OW 2483   1.272   3.307   3.004
  825SOL    HW1 2484   1.319   3.320   3.091
  825SOL    HW2 2485   1.206   3.233   3.013
  826SOL     OW 2486   1.582   2.501   2.334
  826SOL    HW1 2487   1.551   2.562   2.407
  826SOL    HW2 2488   1.632   2.553   2.265
  827SOL     OW 2489   0.354   3.372   3.191
  827SOL    HW1 2490   0.333   3.328   3.104
  827SOL    HW2 2491   0.451   3.398   3.194
  828SOL     OW 2492   0.402   2.613   3.460
  828SOL    HW1 2493   0.470   2.668   3.413
  828SOL    HW2 2494   0.442   2.525   3.487
  829SOL     OW 2495   1.587   2.641   3.532
  829SOL    HW1 2496   1.495   2.679   3.527
  829SOL    HW2 2497   1.647   2.688   3.467
  830SOL     OW 2498   1.013   1.967   3.632
  830SOL    HW1 2499   1.019   2.052   3.580
  830SOL    HW2 2500   1.045   1.891   3.575
  831SOL     OW 2501   0.504   1.912   3.602
  831SOL    HW1 2502   0.462   1.855   3.532
  831SOL    HW2 2503   0.438   1.981   3.634
  832SOL     OW 2504   0.573   2.732   2.891
  832SOL    HW1 2505   0.617   2.821   2.882
  832SOL    HW2 2506   0.510   2.732   2.968
  833SOL     OW 2507   1.360   2.724   2.907
  833SOL    HW1 2508   1.285   2.724   2.841
  833SOL    HW2 2509   1.397   2.632   2.916
  834SOL     OW 2510   1.209   2.387   2.137
  834SOL    HW1 2511   1.222   2.303   2.191
  834SOL    HW2 2512   1.180   2.461   2.197
  835SOL     OW 2513   0.307   2.075   3.093
  835SOL    HW1 2514   0.284   2.112   3.183
  835SOL    HW2 2515   0.277   1.980   3.087
  836SOL     OW 2516   0.037   3.172   3.144
  836SOL    HW1 2517   0.090   3.123   3.212
  836SOL    HW2 2518   0.059   3.270   3.149
  837SOL     OW 2519   0.732   2.496   2.926
  837SOL    HW1 2520   0.791   2.470   2.850
  837SOL    HW2 2521   0.704   2.592   2.915
  838SOL     OW 2522   1.728   2.797   3.716
  838SOL    HW1 2523   1.682   2.790   3.627
  838SOL    HW2 2524   1.666   2.841   3.782
  839SOL     OW 2525   0.307   1.925   2.480
  839SOL    HW1 2526   0.296   2.019   2.513
  839SOL    HW2 2527   0.302   1.862   2.557
  840SOL     OW 2528   1.622   2.229   2.236
  840SOL    HW1 2529   1.624   2.153   2.300
  840SOL    HW2 2530   1.574   2.306   2.276
  841SOL     OW 2531   1.023   2.628   2.828
  841SOL    HW1 2532   1.038   2.649   2.924
  841SOL    HW2 2533   0.993   2.533   2.819
  842SOL     OW 2534   0.980   3.435   3.562
  842SOL    HW1 2535   0.960   3.479   3.474
  842SOL    HW2 2536   1.019   3.344   3.546
  843SOL     OW 2537   1.859   3.380   3.467
  843SOL    HW1 2538   1.873   3.407   3.372
  843SOL    HW2 2539   1.942   3.402   3.520
  844SOL     OW 2540   0.350   2.760   3.666
  844SOL    HW1 2541   0.426   2.804   3.714
  844SOL    HW2 2542   0.385   2.713   3.584
  845SOL     OW 2543   1.540   2.136   1.987
  845SOL    HW1 2544   1.479   2.061   2.010
  845SOL    HW2 2545   1.562   2.188   2.070
  846SOL     OW 2546   1.303   2.700   1.904
  846SOL    HW1 2547   1.337   2.607   1.919
  846SOL    HW2 2548   1.321   2.727   1.809
  847SOL     OW 2549   1.068   3.195   2.711
  847SOL    HW1 2550   1.075   3.111   2.656
  847SOL    HW2 2551   1.130   3.264   2.675
  848SOL     OW 2552   0.319   2.672   2.811
  848SOL    HW1 2553   0.412   2.708   2.816
  848SOL    HW2 2554   0.313   2.587   2.863
  849SOL     OW 2555   0.339   2.371   2.868
  849SOL    HW1 2556   0.287   2.288   2.851
  849SOL    HW2 2557   0.416   2.376   2.804
  850SOL     OW 2558   1.138   2.242   3.540
  850SOL    HW1 2559   1.093   2.305   3.604
  850SOL    HW2 2560   1.231   2.273   3.523
  851SOL     OW 2561   1.160   2.069   3.339
  851SOL    HW1 2562   1.160   2.133   3.416
  851SOL    HW2 2563   1.188   2.117   3.256
  852SOL     OW 2564   0.008   3.188   2.062
  852SOL    HW1 2565  -0.085   3.209   2.031
  852SOL    HW2 2566   0.018   3.089   2.075
  853SOL     OW 2567   0.088   3.663   2.789
  853SOL    HW1 2568   0.046   3.577   2.762
  853SOL    HW2 2569   0.182   3.666   2.755
  854SOL     OW 2570   0.504   3.430   2.772
  854SOL    HW1 2571   0.570   3.504   2.781
  854SOL    HW2 2572   0.548   3.351   2.730
  855SOL     OW 2573   1.002   2.658   3.100
  855SOL    HW1 2574   1.043   2.626   3.186
  855SOL    HW2 2575   0.906   2.631   3.097
  856SOL     OW 2576   0.040   2.406   2.976
  856SOL    HW1 2577   0.125   2.373   2.935
  856SOL    HW2 2578   0.053   2.421   3.074
  857SOL     OW 2579   0.189   2.382   3.584
  857SOL    HW1 2580   0.248   2.342   3.514
  857SOL    HW2 2581   0.131   2.453   3.543
  858SOL     OW 2582   1.369   2.812   3.522
  858SOL    HW1 2583   1.408   2.901   3.542
  858SOL    HW2 2584   1.379   2.792   3.425
  859SOL     OW 2585   0.815   2.434   2.187
  859SOL    HW1 2586   0.822   2.345   2.141
  859SOL    HW2 2587   0.721   2.468   2.179
  860SOL     OW 2588   1.657   2.466   3.068
  860SOL    HW1 2589   1.619   2.397   3.130
  860SOL    HW2 2590   1.739   2.430   3.024
  861SOL     OW 2591   0.252   3.426   3.606
  861SOL    HW1 2592   0.222   3.483   3.682
  861SOL    HW2 2593   0.245   3.329   3.632
  862SOL     OW 2594   0.671   2.326   3.131
  862SOL    HW1 2595   0.637   2.237   3.101
  862SOL    HW2 2596   0.697   2.380   3.051
  863SOL     OW 2597   0.930   3.540   3.327
  863SOL    HW1 2598   0.906   3.522   3.232
  863SOL    HW2 2599   0.960   3.634   3.337
  864SOL     OW 2600   0.473   2.362   2.053
  864SOL    HW1 2601   0.534   2.442   2.057
  864SOL    HW2 2602   0.378   2.393   2.060
  865SOL     OW 2603   0.159   2.999   3.328
  865SOL    HW1 2604   0.181   2.938   3.404
  865SOL    HW2 2605   0.169   2.950   3.242
  866SOL     OW 2606   1.347   2.921   3.096
  866SOL    HW1 2607   1.371   2.858   3.022
  866SOL    HW2 2608   1.257   2.961   3.078
  867SOL     OW 2609   1.302   2.717   2.171
  867SOL    HW1 2610   1.216   2.686   2.213
  867SOL    HW2 2611   1.298   2.703   2.072
  868SOL     OW 2612   1.759   3.609   3.016
  868SOL    HW1 2613   1.820   3.639   2.943
  868SOL    HW2 2614   1.721   3.520   2.994
  869SOL     OW 2615   1.252   3.593   2.990
  869SOL    HW1 2616   1.336   3.598   2.936
  869SOL    HW2 2617   1.229   3.497   3.008
  870SOL     OW 2618   0.083   3.120   2.884
  870SOL    HW1 2619   0.078   3.119   2.984
  870SOL    HW2 2620   0.000   3.079   2.846
  871SOL     OW 2621   0.688   3.524   3.578
  871SOL    HW1 2622   0.632   3.605   3.587
  871SOL    HW2 2623   0.740   3.528   3.492
  872SOL     OW 2624   1.726   1.997   2.385
  872SOL    HW1 2625   1.799   1.980   2.318
  872SOL    HW2 2626   1.695   1.910   2.423
  873SOL     OW 2627   1.388   3.435   2.339
  873SOL    HW1 2628   1.455   3.447   2.265
  873SOL    HW2 2629   1.348   3.524   2.362
  874SOL     OW 2630   0.130   3.656   3.713
  874SOL    HW1 2631   0.089   3.582   3.766
  874SOL    HW2 2632   0.194   3.707   3.771
  875SOL     OW 2633   1.280   2.789   2.534
  875SOL    HW1 2634   1.340   2.708   2.536
  875SOL    HW2 2635   1.320   2.858   2.474
  876SOL     OW 2636   0.830   3.135   3.284
  876SOL    HW1 2637   0.825   3.168   3.379
  876SOL    HW2 2638   0.744   3.154   3.238
  877SOL     OW 2639   0.672   3.478   2.016
  877SOL    HW1 2640   0.681   3.488   1.917
  877SOL    HW2 2641   0.632   3.389   2.037
  878SOL     OW 2642   1.650   3.582   3.256
  878SOL    HW1 2643   1.703   3.592   3.172
  878SOL    HW2 2644   1.623   3.672   3.290
  879SOL     OW 2645   1.841   2.037   2.825
  879SOL    HW1 2646   1.880   1.952   2.789
  879SOL    HW2 2647   1.743   2.039   2.806
  880SOL     OW 2648   0.263   2.188   2.582
  880SOL    HW1 2649   0.184   2.239   2.548
  880SOL    HW2 2650   0.254   2.173   2.680
  881SOL     OW 2651   1.194   3.474   1.893
  881SOL    HW1 2652   1.200   3.381   1.930
  881SOL    HW2 2653   1.135   3.474   1.813
  882SOL     OW 2654   0.822   2.864   3.234
  882SOL    HW1 2655   0.862   2.863   3.142
  882SOL    HW2 2656   0.832   2.956   3.274
  883SOL     OW 2657   0.916   2.772   2.153
  883SOL    HW1 2658   0.979   2.810   2.085
  883SOL    HW2 2659   0.956   2.689   2.192
  884SOL     OW 2660   1.504   3.469   1.906
  884SOL    HW1 2661   1.412   3.506   1.913
  884SOL    HW2 2662   1.542   3.489   1.816
  885SOL     OW 2663   0.372   3.150   3.352
  885SOL    HW1 2664   0.359   3.243   3.318
  885SOL    HW2 2665   0.288   3.098   3.339
  886SOL     OW 2666   1.614   3.154   3.151
  886SOL    HW1 2667   1.674   3.157   3.231
  886SOL    HW2 2668   1.539   3.218   3.164
  887SOL     OW 2669   1.039   2.960   2.558
  887SOL    HW1 2670   0.969   2.913   2.612
  887SOL    HW2 2671   1.098   2.892   2.515
  888SOL     OW 2672   1.014   2.098   2.833
  888SOL    HW1 2673   1.006   2.062   2.740
  888SOL    HW2 2674   1.012   2.022   2.898
  889SOL     OW 2675   0.590   3.349   2.353
  889SOL    HW1 2676   0.632   3.291   2.283
  889SOL    HW2 2677   0.546   3.428   2.309
  890SOL     OW 2678   1.709   2.247   3.243
  890SOL    HW1 2679   1.782   2.316   3.247
  890SOL    HW2 2680   1.737   2.172   3.184
  891SOL     OW 2681   0.255   3.210   2.152
  891SOL    HW1 2682   0.159   3.211   2.125
  891SOL    HW2 2683   0.267   3.263   2.236
  892SOL     OW 2684   0.105   2.875   3.588
  892SOL    HW1 2685   0.028   2.842   3.642
  892SOL    HW2 2686   0.190   2.845   3.630
  893SOL     OW 2687   0.672   2.065   3.351
  893SOL    HW1 2688   0.762   2.049   3.311
  893SOL    HW2 2689   0.680   2.070   3.450
  894SOL     OW 2690   0.075   2.207   1.895
  894SOL    HW1 2691  -0.017   2.179   1.866
  894SOL    HW2 2692   0.106   2.284   1.839
  895SOL     OW 2693   1.440   2.718   3.260
  895SOL    HW1 2694   1.383   2.770   3.197
  895SOL    HW2 2695   1.536   2.730   3.236
  896SOL     OW 2696   0.072   2.028   2.180
  896SOL    HW1 2697   0.055   2.111   2.126
  896SOL    HW2 2698   0.162   1.991   2.158
  897SOL     OW 2699   1.183   3.197   1.981
  897SOL    HW1 2700   1.084   3.186   1.983
  897SOL    HW2 2701   1.217   3.212   2.074
  898SOL     OW 2702   0.613   2.704   3.293
  898SOL    HW1 2703   0.669   2.785   3.276
  898SOL    HW2 2704   0.672   2.624   3.296
  899SOL     OW 2705   1.493   3.629   2.821
  899SOL    HW1 2706   1.526   3.693   2.752
  899SOL    HW2 2707   1.559   3.623   2.896
  900SOL     OW 2708   0.716   2.427   3.570
  900SOL    HW1 2709   0.735   2.492   3.644
  900SOL    HW2 2710   0.776   2.347   3.579
  901SOL     OW 2711   1.450   3.082   3.495
  901SOL    HW1 2712   1.441   3.072   3.594
  901SOL    HW2 2713   1.546   3.075   3.469
  902SOL     OW 2714   0.390   3.603   3.422
  902SOL    HW1 2715   0.299   3.644   3.420
  902SOL    HW2 2716   0.383   3.509   3.454
  903SOL     OW 2717   1.674   2.745   3.116
  903SOL    HW1 2718   1.647   2.656   3.079
  903SOL    HW2 2719   1.675   2.813   3.043
  904SOL     OW 2720   1.225   2.187   2.311
  904SOL    HW1 2721   1.290   2.113   2.300
  904SOL    HW2 2722   1.245   2.237   2.395
  905SOL     OW 2723   0.594   2.607   2.514
  905SOL    HW1 2724   0.644   2.692   2.495
  905SOL    HW2 2725   0.506   2.609   2.466
  906SOL     OW 2726   1.777   2.204   3.504
  906SOL    HW1 2727   1.760   2.235   3.410
  906SOL    HW2 2728   1.693   2.167   3.542
  907SOL     OW 2729   1.730   2.796   3.379
  907SOL    HW1 2730   1.768   2.887   3.394
  907SOL    HW2 2731   1.722   2.779   3.280
  908SOL     OW 2732   0.859   3.236   1.878
  908SOL    HW1 2733   0.813   3.251   1.966
  908SOL    HW2 2734   0.903   3.321   1.848
  909SOL     OW 2735   0.661   3.652   2.815
  909SOL    HW1 2736   0.615   3.740   2.802
  909SOL    HW2 2737   0.760   3.664   2.808
  910SOL     OW 2738   0.859   2.818   2.723
  910SOL    HW1 2739   0.913   2.749   2.771
  910SOL    HW2 2740   0.827   2.887   2.789
  911SOL     OW 2741   1.083   2.846   1.949
  911SOL    HW1 2742   1.060   2.899   1.867
  911SOL    HW2 2743   1.164   2.790   1.930
  912SOL     OW 2744   1.861   3.431   2.713
  912SOL    HW1 2745   1.790   3.419   2.643
  912SOL    HW2 2746   1.862   3.352   2.773
  913SOL     OW 2747   0.221   3.176   3.706
  913SOL    HW1 2748   0.156   3.103   3.685
  913SOL    HW2 2749   0.225   3.190   3.804
  914SOL     OW 2750   0.079   3.102   2.515
  914SOL    HW1 2751   0.078   3.055   2.603
  914SOL    HW2 2752   0.161   3.074   2.464
  915SOL     OW 2753   0.672   3.253   3.486
  915SOL    HW1 2754   0.594   3.203   3.524
  915SOL    HW2 2755   0.669   3.348   3.517
  916SOL     OW 2756   1.824   2.054   3.089
  916SOL    HW1 2757   1.820   1.964   3.133
  916SOL    HW2 2758   1.827   2.043   2.990
  917SOL     OW 2759   0.428   2.286   2.382
  917SOL    HW1 2760   0.458   2.214   2.320
  917SOL    HW2 2761   0.389   2.246   2.465
  918SOL     OW 2762   1.705   3.349   2.966
  918SOL    HW1 2763   1.612   3.324   2.939
  918SOL    HW2 2764   1.731   3.299   3.048
  919SOL     OW 2765   0.317   2.409   3.142
  919SOL    HW1 2766   0.355   2.350   3.214
  919SOL    HW2 2767   0.357   2.383   3.054
  920SOL     OW 2768   0.812   3.448   2.549
  920SOL    HW1 2769   0.844   3.458   2.455
  920SOL    HW2 2770   0.733   3.386   2.551
  921SOL     OW 2771   1.424   2.076   2.974
  921SOL    HW1 2772   1.476   2.011   3.029
  921SOL    HW2 2773   1.375   2.139   3.035
  922SOL     OW 2774   1.001   1.896   3.016
  922SOL    HW1 2775   0.938   1.824   2.985
  922SOL    HW2 2776   1.094   1.860   3.016
  923SOL     OW 2777   0.770   3.192   2.163
  923SOL    HW1 2778   0.724   3.105   2.180
  923SOL    HW2 2779   0.861   3.189   2.204
  924SOL     OW 2780   0.618   3.429   3.146
  924SOL    HW1 2781   0.613   3.511   3.203
  924SOL    HW2 2782   0.707   3.426   3.101
  925SOL     OW 2783   1.352   1.914   2.030
  925SOL    HW1 2784   1.387   1.873   1.946
  925SOL    HW2 2785   1.262   1.876   2.050
  926SOL     OW 2786   1.300   2.315   2.553
  926SOL    HW1 2787   1.241   2.395   2.557
  926SOL    HW2 2788   1.315   2.280   2.646
  927SOL     OW 2789   1.593   2.083   2.744
  927SOL    HW1 2790   1.509   2.082   2.798
  927SOL    HW2 2791   1.595   2.166   2.688
  928SOL     OW 2792   0.039   2.939   2.162
  928SOL    HW1 2793   0.138   2.928   2.153
  928SOL    HW2 2794  -0.001   2.853   2.194
  929SOL     OW 2795   0.875   3.508   2.199
  929SOL    HW1 2796   0.798   3.473   2.145
  929SOL    HW2 2797   0.843   3.579   2.261
  930SOL     OW 2798   0.230   2.490   3.837
  930SOL    HW1 2799   0.137   2.488   3.874
  930SOL    HW2 2800   0.231   2.451   3.745
  931SOL     OW 2801   1.755   2.469   3.955
  931SOL    HW1 2802   1.743   2.456   3.856
  931SOL    HW2 2803   1.725   2.388   4.004
  932SOL     OW 2804   0.231   3.575   4.207
  932SOL    HW1 2805   0.265   3.652   4.261
  932SOL    HW2 2806   0.275   3.575   4.117
  933SOL     OW 2807   0.230   3.296   4.262
  933SOL    HW1 2808   0.204   3.392   4.262
  933SOL    HW2 2809   0.159   3.242   4.307
  934SOL     OW 2810   0.606   2.826   3.847
  934SOL    HW1 2811   0.613   2.910   3.793
  934SOL    HW2 2812   0.652   2.839   3.935
  935SOL     OW 2813   0.122   2.505   4.287
  935SOL    HW1 2814   0.077   2.417   4.304
  935SOL    HW2 2815   0.121   2.559   4.371
  936SOL     OW 2816   1.842   3.629   4.083
  936SOL    HW1 2817   1.896   3.600   4.163
  936SOL    HW2 2818   1.872   3.719   4.054
  937SOL     OW 2819   0.027   3.458   3.841
  937SOL    HW1 2820   0.008   3.362   3.862
  937SOL    HW2 2821  -0.006   3.516   3.916
  938SOL     OW 2822   1.689   2.784   4.336
  938SOL    HW1 2823   1.784   2.755   4.344
  938SOL    HW2 2824   1.681   2.849   4.261
  939SOL     OW 2825   1.641   2.970   4.156
  939SOL    HW1 2826   1.727   2.972   4.104
  939SOL    HW2 2827   1.655   3.017   4.244
  940SOL     OW 2828   0.613   3.227   4.450
  940SOL    HW1 2829   0.564   3.140   4.459
  940SOL    HW2 2830   0.590   3.270   4.363
  941SOL     OW 2831   0.809   1.866   4.226
  941SOL    HW1 2832   0.849   1.957   4.217
  941SOL    HW2 2833   0.709   1.874   4.232
  942SOL     OW 2834   1.525   2.861   3.914
  942SOL    HW1 2835   1.462   2.785   3.927
  942SOL    HW2 2836   1.573   2.879   4.000
  943SOL     OW 2837   1.466   3.279   4.677
  943SOL    HW1 2838   1.407   3.285   4.757
  943SOL    HW2 2839   1.451   3.191   4.631
  944SOL     OW 2840   0.598   2.591   3.994
  944SOL    HW1 2841   0.622   2.660   3.926
  944SOL    HW2 2842   0.520   2.624   4.048
  945SOL     OW 2843   1.576   3.524   4.031
  945SOL    HW1 2844   1.665   3.570   4.034
  945SOL    HW2 2845   1.555   3.500   3.936
  946SOL     OW 2846   1.041   2.563   4.153
  946SOL    HW1 2847   1.067   2.559   4.249
  946SOL    HW2 2848   0.956   2.512   4.139
  947SOL     OW 2849   0.076   2.673   4.513
  947SOL    HW1 2850   0.175   2.661   4.522
  947SOL    HW2 2851   0.052   2.768   4.534
  948SOL     OW 2852   0.865   2.210   3.919
  948SOL    HW1 2853   0.924   2.273   3.870
  948SOL    HW2 2854   0.884   2.116   3.890
  949SOL     OW 2855   1.362   3.006   4.269
  949SOL    HW1 2856   1.445   2.977   4.221
  949SOL    HW2 2857   1.313   3.073   4.213
  950SOL     OW 2858   1.008   3.318   4.201
  950SOL    HW1 2859   0.962   3.390   4.149
  950SOL    HW2 2860   1.004   3.338   4.299
  951SOL     OW 2861   0.351   3.663   4.577
  951SOL    HW1 2862   0.401   3.577   4.583
  951SOL    HW2 2863   0.416   3.740   4.574
  952SOL     OW 2864   1.795   2.928   4.597
  952SOL    HW1 2865   1.733   2.913   4.521
  952SOL    HW2 2866   1.743   2.939   4.682
  953SOL     OW 2867   0.321   2.805   3.966
  953SOL    HW1 2868   0.403   2.844   3.924
  953SOL    HW2 2869   0.294   2.723   3.917
  954SOL     OW 2870   1.111   3.638   3.961
  954SOL    HW1 2871   1.051   3.576   4.011
  954SOL    HW2 2872   1.142   3.594   3.876
  955SOL     OW 2873   1.632   3.239   3.805
  955SOL    HW1 2874   1.600   3.333   3.795
  955SOL    HW2 2875   1.556   3.176   3.793
  956SOL     OW 2876   0.464   3.605   4.047
  956SOL    HW1 2877   0.497   3.644   4.133
  956SOL    HW2 2878   0.540   3.598   3.982
  957SOL     OW 2879   1.400   1.969   4.150
  957SOL    HW1 2880   1.376   1.932   4.060
  957SOL    HW2 2881   1.499   1.985   4.154
  958SOL     OW 2882   0.382   2.562   4.204
  958SOL    HW1 2883   0.427   2.472   4.201
  958SOL    HW2 2884   0.288   2.551   4.237
  959SOL     OW 2885   0.614   1.984   3.841
  959SOL    HW1 2886   0.712   1.962   3.848
  959SOL    HW2 2887   0.583   1.967   3.748
  960SOL     OW 2888   0.539   1.926   4.236
  960SOL    HW1 2889   0.458   1.927   4.294
  960SOL    HW2 2890   0.542   2.009   4.181
  961SOL     OW 2891   1.434   3.050   3.765
  961SOL    HW1 2892   1.466   2.974   3.822
  961SOL    HW2 2893   1.342   3.077   3.795
  962SOL     OW 2894   0.297   1.897   3.895
  962SOL    HW1 2895   0.346   1.981   3.874
  962SOL    HW2 2896   0.359   1.832   3.940
  963SOL     OW 2897   0.935   2.098   4.204
  963SOL    HW1 2898   0.887   2.139   4.126
  963SOL    HW2 2899   1.034   2.096   4.185
  964SOL     OW 2900   0.459   3.014   4.465
  964SOL    HW1 2901   0.388   2.987   4.530
  964SOL    HW2 2902   0.433   2.986   4.372
  965SOL     OW 2903   1.271   3.659   4.315
  965SOL    HW1 2904   1.315   3.723   4.251
  965SOL    HW2 2905   1.221   3.711   4.385
  966SOL     OW 2906   1.032   2.411   3.740
  966SOL    HW1 2907   0.991   2.493   3.701
  966SOL    HW2 2908   1.096   2.437   3.813
  967SOL     OW 2909   0.866   2.316   4.366
  967SOL    HW1 2910   0.834   2.388   4.304
  967SOL    HW2 2911   0.890   2.235   4.313
  968SOL     OW 2912   1.857   2.695   4.101
  968SOL    HW1 2913   1.899   2.631   4.165
  968SOL    HW2 2914   1.819   2.644   4.023
  969SOL     OW 2915   0.488   3.247   3.898
  969SOL    HW1 2916   0.401   3.232   3.945
  969SOL    HW2 2917   0.471   3.273   3.803
  970SOL     OW 2918   1.390   2.437   3.802
  970SOL    HW1 2919   1.336   2.416   3.883
  970SOL    HW2 2920   1.481   2.396   3.811
  971SOL     OW 2921   0.527   2.118   4.052
  971SOL    HW1 2922   0.554   2.059   3.977
  971SOL    HW2 2923   0.527   2.213   4.021
  972SOL     OW 2924   0.705   2.912   4.092
  972SOL    HW1 2925   0.691   2.919   4.191
  972SOL    HW2 2926   0.789   2.861   4.074
  973SOL     OW 2927   0.367   2.962   4.225
  973SOL    HW1 2928   0.360   3.045   4.169
  973SOL    HW2 2929   0.371   2.882   4.165
  974SOL     OW 2930   1.252   3.210   4.112
  974SOL    HW1 2931   1.302   3.287   4.152
  974SOL    HW2 2932   1.157   3.212   4.144
  975SOL     OW 2933   1.582   2.501   4.196
  975SOL    HW1 2934   1.551   2.562   4.269
  975SOL    HW2 2935   1.632   2.553   4.127
  976SOL     OW 2936   1.209   2.387   3.999
  976SOL    HW1 2937   1.222   2.303   4.053
  976SOL    HW2 2938   1.180   2.461   4.059
  977SOL     OW 2939   0.307   1.925   4.342
  977SOL    HW1 2940   0.296   2.019   4.375
  977SOL    HW2 2941   0.302   1.862   4.419
  978SOL     OW 2942   1.622   2.229   4.098
  978SOL    HW1 2943   1.624   2.153   4.162
  978SOL    HW2 2944   1.574   2.306   4.138
  979SOL     OW 2945   1.540   2.136   3.849
  979SOL    HW1 2946   1.479   2.061   3.872
  979SOL    HW2 2947   1.562   2.188   3.932
  980SOL     OW 2948   1.303   2.700   3.766
  980SOL    HW1 2949   1.337   2.607   3.781
  980SOL    HW2 2950   1.321   2.727   3.671
  981SOL     OW 2951   0.008   3.188   3.924
  981SOL    HW1 2952  -0.085   3.209   3.893
  981SOL    HW2 2953   0.018   3.089   3.937
  982SOL     OW 2954   0.815   2.434   4.049
  982SOL    HW1 2955   0.822   2.345   4.003
  982SOL    HW2 2956   0.721   2.468   4.041
  983SOL     OW 2957   0.473   2.362   3.915
  983SOL    HW1 2958   0.534   2.442   3.919
  983SOL    HW2 2959   0.378   2.393   3.922
  984SOL     OW 2960   1.302   2.717   4.033
  984SOL    HW1 2961   1.216   2.686   4.075
  984SOL    HW2 2962   1.298   2.703   3.934
  985SOL     OW 2963   1.726   1.997   4.247
  985SOL    HW1 2964   1.799   1.980   4.180
  985SOL    HW2 2965   1.695   1.910   4.285
  986SOL     OW 2966   1.388   3.435   4.201
  986SOL    HW1 2967   1.455   3.447   4.127
  986SOL    HW2 2968   1.348   3.524   4.224
  987SOL     OW 2969   0.672   3.478   3.878
  987SOL    HW1 2970   0.681   3.488   3.779
  987SOL    HW2 2971   0.632   3.389   3.899
  988SOL     OW 2972   1.841   2.037   4.687
  988SOL    HW1 2973   1.880   1.952   4.651
  988SOL    HW2 2974   1.743   2.039   4.668
  989SOL     OW 2975   1.194   3.474   3.755
  989SOL    HW1 2976   1.200   3.381   3.792
  989SOL    HW2 2977   1.135   3.474   3.675
  990SOL     OW 2978   0.916   2.772   4.015
  990SOL    HW1 2979   0.979   2.810   3.947
  990SOL    HW2 2980   0.956   2.689   4.054
  991SOL     OW 2981   1.504   3.469   3.768
  991SOL    HW1 2982   1.412   3.506   3.775
  991SOL    HW2 2983   1.542   3.489   3.678
  992SOL     OW 2984   0.590   3.349   4.215
  992SOL    HW1 2985   0.632   3.291   4.145
  992SOL    HW2 2986   0.546   3.428   4.171
  993SOL     OW 2987   0.255   3.210   4.014
  993SOL    HW1 2988   0.159   3.211   3.987
  993SOL    HW2 2989   0.267   3.263   4.098
  994SOL     OW 2990   0.075   2.207   3.757
  994SOL    HW1 2991  -0.017   2.179   3.728
  994SOL    HW2 2992   0.106   2.284   3.701
  995SOL     OW 2993   0.072   2.028   4.042
  995SOL    HW1 2994   0.055   2.111   3.988
  995SOL    HW2 2995   0.162   1.991   4.020
  996SOL     OW 2996   1.183   3.197   3.843
  996SOL    HW1 2997   1.084   3.186   3.845
  996SOL    HW2 2998   1.217   3.212   3.936
  997SOL     OW 2999   1.225   2.187   4.173
  997SOL    HW1 3000   1.290   2.113   4.162
  997SOL    HW2 3001   1.245   2.237   4.257
  998SOL     OW 3002   0.594   2.607   4.376
  998SOL    HW1 3003   0.644   2.692   4.357
  998SOL    HW2 3004   0.506   2.609   4.328
  999SOL     OW 3005   0.859   3.236   3.740
  999SOL    HW1 3006   0.813   3.251   3.828
  999SOL    HW2 3007   0.903   3.321   3.710
 1000SOL     OW 3008   1.083   2.846   3.811
 1000SOL    HW1 3009   1.060   2.899   3.729
 1000SOL    HW2 3010   1.164   2.790   3.792
 1001SOL     OW 3011   0.079   3.102   4.377
 1001SOL    HW1 3012   0.078   3.055   4.465
 1001SOL    HW2 3013   0.161   3.074   4.326
 1002SOL     OW 3014   0.428   2.286   4.244
 1002SOL    HW1 3015   0.458   2.214   4.182
 1002SOL    HW2 3016   0.389   2.246   4.327
 1003SOL     OW 3017   0.812   3.448   4.411
 1003SOL    HW1 3018   0.844   3.458   4.317
 1003SOL    HW2 3019   0.733   3.386   4.413
 1004SOL     OW 3020   0.770   3.192   4.025
 1004SOL    HW1 3021   0.724   3.105   4.042
 1004SOL    HW2 3022   0.861   3.189   4.066
 1005SOL     OW 3023   1.352   1.914   3.892
 1005SOL    HW1 3024   1.387   1.873   3.808
 1005SOL    HW2 3025   1.262   1.876   3.912
 1006SOL     OW 3026   1.300   2.315   4.415
 1006SOL    HW1 3027   1.241   2.395   4.419
 1006SOL    HW2 3028   1.315   2.280   4.508
 1007SOL     OW 3029   0.039   2.939   4.024
 1007SOL    HW1 3030   0.138   2.928   4.015
 1007SOL    HW2 3031  -0.001   2.853   4.056
 1008SOL     OW 3032   0.875   3.508   4.061
 1008SOL    HW1 3033   0.798   3.473   4.007
 1008SOL    HW2 3034   0.843   3.579   4.123
 1009SOL     OW 3035   0.225   3.999   0.996
 1009SOL    HW1 3036   0.260   3.982   1.088
 1009SOL    HW2 3037   0.137   3.954   0.984
 1010SOL     OW 3038   0.019   4.092   0.647
 1010SOL    HW1 3039  -0.063   4.135   0.686
 1010SOL    HW2 3040  -0.009   4.019   0.584
 1011SOL     OW 3041   1.755   4.331   0.231
 1011SOL    HW1 3042   1.743   4.318   0.132
 1011SOL    HW2 3043   1.725   4.250   0.280
 1012SOL     OW 3044   0.438   4.116   1.499
 1012SOL    HW1 3045   0.520   4.060   1.508
 1012SOL    HW2 3046   0.357   4.058   1.503
 1013SOL     OW 3047   1.603   4.171   0.737
 1013SOL    HW1 3048   1.529   4.217   0.687
 1013SOL    HW2 3049   1.654   4.239   0.790
 1014SOL     OW 3050   1.594   3.838   1.480
 1014SOL    HW1 3051   1.576   3.905   1.408
 1014SOL    HW2 3052   1.591   3.884   1.569
 1015SOL     OW 3053   0.122   4.367   0.563
 1015SOL    HW1 3054   0.077   4.279   0.580
 1015SOL    HW2 3055   0.121   4.421   0.647
 1016SOL     OW 3056   0.113   4.461   1.597
 1016SOL    HW1 3057   0.201   4.448   1.642
 1016SOL    HW2 3058   0.100   4.558   1.575
 1017SOL     OW 3059   0.809   3.728   0.502
 1017SOL    HW1 3060   0.849   3.819   0.493
 1017SOL    HW2 3061   0.709   3.736   0.508
 1018SOL     OW 3062   0.317   3.975   1.801
 1018SOL    HW1 3063   0.388   4.046   1.807
 1018SOL    HW2 3064   0.229   4.014   1.829
 1019SOL     OW 3065   1.281   4.069   0.944
 1019SOL    HW1 3066   1.195   4.019   0.931
 1019SOL    HW2 3067   1.343   4.015   1.000
 1020SOL     OW 3068   0.807   4.329   1.465
 1020SOL    HW1 3069   0.760   4.326   1.554
 1020SOL    HW2 3070   0.756   4.274   1.399
 1021SOL     OW 3071   1.394   4.193   1.674
 1021SOL    HW1 3072   1.374   4.236   1.762
 1021SOL    HW2 3073   1.472   4.131   1.683
 1022SOL     OW 3074   0.991   4.134   1.242
 1022SOL    HW1 3075   0.914   4.168   1.296
 1022SOL    HW2 3076   0.957   4.083   1.163
 1023SOL     OW 3077   1.041   4.425   0.429
 1023SOL    HW1 3078   1.067   4.421   0.525
 1023SOL    HW2 3079   0.956   4.374   0.415
 1024SOL     OW 3080   0.076   4.535   0.789
 1024SOL    HW1 3081   0.175   4.523   0.798
 1024SOL    HW2 3082   0.052   4.630   0.810
 1025SOL     OW 3083   0.865   4.072   0.195
 1025SOL    HW1 3084   0.924   4.135   0.146
 1025SOL    HW2 3085   0.884   3.978   0.166
 1026SOL     OW 3086   1.719   4.309   1.831
 1026SOL    HW1 3087   1.693   4.398   1.795
 1026SOL    HW2 3088   1.717   4.241   1.758
 1027SOL     OW 3089   0.550   3.920   0.885
 1027SOL    HW1 3090   0.545   3.915   0.985
 1027SOL    HW2 3091   0.552   4.016   0.856
 1028SOL     OW 3092   1.458   4.459   0.728
 1028SOL    HW1 3093   1.453   4.394   0.803
 1028SOL    HW2 3094   1.538   4.518   0.741
 1029SOL     OW 3095   0.202   4.009   1.498
 1029SOL    HW1 3096   0.122   4.069   1.485
 1029SOL    HW2 3097   0.192   3.960   1.584
 1030SOL     OW 3098   1.400   3.831   0.426
 1030SOL    HW1 3099   1.376   3.794   0.336
 1030SOL    HW2 3100   1.499   3.847   0.430
 1031SOL     OW 3101   1.547   3.946   1.729
 1031SOL    HW1 3102   1.542   3.983   1.821
 1031SOL    HW2 3103   1.475   3.877   1.717
 1032SOL     OW 3104   0.614   3.846   0.117
 1032SOL    HW1 3105   0.712   3.824   0.124
 1032SOL    HW2 3106   0.583   3.829   0.024
 1033SOL     OW 3107   0.781   3.988   1.749
 1033SOL    HW1 3108   0.848   3.927   1.792
 1033SOL    HW2 3109   0.708   4.007   1.814
 1034SOL     OW 3110   1.351   4.314   1.433
 1034SOL    HW1 3111   1.379   4.271   1.518
 1034SOL    HW2 3112   1.376   4.410   1.434
 1035SOL     OW 3113   0.922   4.227   0.899
 1035SOL    HW1 3114   0.897   4.218   0.803
 1035SOL    HW2 3115   0.970   4.145   0.930
 1036SOL     OW 3116   0.539   3.788   0.512
 1036SOL    HW1 3117   0.458   3.789   0.570
 1036SOL    HW2 3118   0.542   3.871   0.457
 1037SOL     OW 3119   0.935   3.960   0.480
 1037SOL    HW1 3120   0.887   4.001   0.402
 1037SOL    HW2 3121   1.034   3.958   0.461
 1038SOL     OW 3122   1.076   4.407   1.464
 1038SOL    HW1 3123   0.996   4.346   1.467
 1038SOL    HW2 3124   1.157   4.354   1.440
 1039SOL     OW 3125   1.032   4.273   0.016
 1039SOL    HW1 3126   0.991   4.355  -0.023
 1039SOL    HW2 3127   1.096   4.299   0.089
 1040SOL     OW 3128   0.078   4.280   1.386
 1040SOL    HW1 3129   0.170   4.279   1.345
 1040SOL    HW2 3130   0.072   4.354   1.453
 1041SOL     OW 3131   0.561   3.946   1.147
 1041SOL    HW1 3132   0.599   3.862   1.184
 1041SOL    HW2 3133   0.473   3.965   1.191
 1042SOL     OW 3134   0.866   4.178   0.642
 1042SOL    HW1 3135   0.834   4.250   0.580
 1042SOL    HW2 3136   0.890   4.097   0.589
 1043SOL     OW 3137   1.017   3.763   0.753
 1043SOL    HW1 3138   0.945   3.768   0.684
 1043SOL    HW2 3139   0.993   3.694   0.822
 1044SOL     OW 3140   1.466   4.314   0.992
 1044SOL    HW1 3141   1.436   4.219   0.999
 1044SOL    HW2 3142   1.539   4.330   1.058
 1045SOL     OW 3143   0.527   3.980   0.328
 1045SOL    HW1 3144   0.554   3.921   0.253
 1045SOL    HW2 3145   0.527   4.075   0.297
 1046SOL     OW 3146   0.915   3.813   1.402
 1046SOL    HW1 3147   0.940   3.793   1.307
 1046SOL    HW2 3148   0.987   3.869   1.444
 1047SOL     OW 3149   1.274   4.110   1.262
 1047SOL    HW1 3150   1.295   4.184   1.326
 1047SOL    HW2 3151   1.185   4.127   1.219
 1048SOL     OW 3152   0.566   4.261   0.865
 1048SOL    HW1 3153   0.578   4.327   0.791
 1048SOL    HW2 3154   0.612   4.295   0.948
 1049SOL     OW 3155   1.582   4.363   0.472
 1049SOL    HW1 3156   1.551   4.424   0.545
 1049SOL    HW2 3157   1.632   4.415   0.403
 1050SOL     OW 3158   1.013   3.829   1.770
 1050SOL    HW1 3159   1.019   3.914   1.718
 1050SOL    HW2 3160   1.045   3.753   1.713
 1051SOL     OW 3161   0.504   3.774   1.740
 1051SOL    HW1 3162   0.462   3.717   1.670
 1051SOL    HW2 3163   0.438   3.843   1.772
 1052SOL     OW 3164   1.209   4.249   0.275
 1052SOL    HW1 3165   1.222   4.165   0.329
 1052SOL    HW2 3166   1.180   4.323   0.335
 1053SOL     OW 3167   0.307   3.937   1.231
 1053SOL    HW1 3168   0.284   3.974   1.321
 1053SOL    HW2 3169   0.277   3.842   1.225
 1054SOL     OW 3170   0.732   4.358   1.064
 1054SOL    HW1 3171   0.791   4.332   0.988
 1054SOL    HW2 3172   0.704   4.454   1.053
 1055SOL     OW 3173   0.307   3.787   0.618
 1055SOL    HW1 3174   0.296   3.881   0.651
 1055SOL    HW2 3175   0.302   3.724   0.695
 1056SOL     OW 3176   1.622   4.091   0.374
 1056SOL    HW1 3177   1.624   4.015   0.438
 1056SOL    HW2 3178   1.574   4.168   0.414
 1057SOL     OW 3179   1.540   3.998   0.125
 1057SOL    HW1 3180   1.479   3.923   0.148
 1057SOL    HW2 3181   1.562   4.050   0.208
 1058SOL     OW 3182   0.319   4.534   0.949
 1058SOL    HW1 3183   0.412   4.570   0.954
 1058SOL    HW2 3184   0.313   4.449   1.001
 1059SOL     OW 3185   0.339   4.233   1.006
 1059SOL    HW1 3186   0.287   4.150   0.989
 1059SOL    HW2 3187   0.416   4.238   0.942
 1060SOL     OW 3188   1.138   4.104   1.678
 1060SOL    HW1 3189   1.093   4.167   1.742
 1060SOL    HW2 3190   1.231   4.135   1.661
 1061SOL     OW 3191   1.160   3.931   1.477
 1061SOL    HW1 3192   1.160   3.995   1.554
 1061SOL    HW2 3193   1.188   3.979   1.394
 1062SOL     OW 3194   0.040   4.268   1.114
 1062SOL    HW1 3195   0.125   4.235   1.073
 1062SOL    HW2 3196   0.053   4.283   1.212
 1063SOL     OW 3197   0.189   4.244   1.722
 1063SOL    HW1 3198   0.248   4.204   1.652
 1063SOL    HW2 3199   0.131   4.315   1.681
 1064SOL     OW 3200   0.815   4.296   0.325
 1064SOL    HW1 3201   0.822   4.207   0.279
 1064SOL    HW2 3202   0.721   4.330   0.317
 1065SOL     OW 3203   1.657   4.328   1.206
 1065SOL    HW1 3204   1.619   4.259   1.268
 1065SOL    HW2 3205   1.739   4.292   1.162
 1066SOL     OW 3206   0.671   4.188   1.269
 1066SOL    HW1 3207   0.637   4.099   1.239
 1066SOL    HW2 3208   0.697   4.242   1.189
 1067SOL     OW 3209   0.473   4.224   0.191
 1067SOL    HW1 3210   0.534   4.304   0.195
 1067SOL    HW2 3211   0.378   4.255   0.198
 1068SOL     OW 3212   0.903   3.810   0.133
 1068SOL    HW1 3213   0.954   3.811   0.047
 1068SOL    HW2 3214   0.959   3.768   0.204
 1069SOL     OW 3215   1.726   3.859   0.523
 1069SOL    HW1 3216   1.799   3.842   0.456
 1069SOL    HW2 3217   1.695   3.772   0.561
 1070SOL     OW 3218   1.280   4.651   0.672
 1070SOL    HW1 3219   1.340   4.570   0.674
 1070SOL    HW2 3220   1.320   4.720   0.612
 1071SOL     OW 3221   1.841   3.899   0.963
 1071SOL    HW1 3222   1.880   3.814   0.927
 1071SOL    HW2 3223   1.743   3.901   0.944
 1072SOL     OW 3224   0.263   4.050   0.720
 1072SOL    HW1 3225   0.184   4.101   0.686
 1072SOL    HW2 3226   0.254   4.035   0.818
 1073SOL     OW 3227   1.014   3.960   0.971
 1073SOL    HW1 3228   1.006   3.924   0.878
 1073SOL    HW2 3229   1.012   3.884   1.036
 1074SOL     OW 3230   1.709   4.109   1.381
 1074SOL    HW1 3231   1.782   4.178   1.385
 1074SOL    HW2 3232   1.737   4.034   1.322
 1075SOL     OW 3233   0.672   3.927   1.489
 1075SOL    HW1 3234   0.762   3.911   1.449
 1075SOL    HW2 3235   0.680   3.932   1.588
 1076SOL     OW 3236   0.075   4.069   0.033
 1076SOL    HW1 3237  -0.017   4.041   0.004
 1076SOL    HW2 3238   0.106   4.146  -0.023
 1077SOL     OW 3239   0.072   3.890   0.318
 1077SOL    HW1 3240   0.055   3.973   0.264
 1077SOL    HW2 3241   0.162   3.853   0.296
 1078SOL     OW 3242   0.716   4.289   1.708
 1078SOL    HW1 3243   0.735   4.354   1.782
 1078SOL    HW2 3244   0.776   4.209   1.717
 1079SOL     OW 3245   1.225   4.049   0.449
 1079SOL    HW1 3246   1.290   3.975   0.438
 1079SOL    HW2 3247   1.245   4.099   0.533
 1080SOL     OW 3248   1.777   4.066   1.642
 1080SOL    HW1 3249   1.760   4.097   1.548
 1080SOL    HW2 3250   1.693   4.029   1.680
 1081SOL     OW 3251   1.083   4.708   0.087
 1081SOL    HW1 3252   1.060   4.761   0.005
 1081SOL    HW2 3253   1.164   4.652   0.068
 1082SOL     OW 3254   1.824   3.916   1.227
 1082SOL    HW1 3255   1.820   3.826   1.271
 1082SOL    HW2 3256   1.827   3.905   1.128
 1083SOL     OW 3257   0.428   4.148   0.520
 1083SOL    HW1 3258   0.458   4.076   0.458
 1083SOL    HW2 3259   0.389   4.108   0.603
 1084SOL     OW 3260   0.317   4.271   1.280
 1084SOL    HW1 3261   0.355   4.212   1.352
 1084SOL    HW2 3262   0.357   4.245   1.192
 1085SOL     OW 3263   1.424   3.938   1.112
 1085SOL    HW1 3264   1.476   3.873   1.167
 1085SOL    HW2 3265   1.375   4.001   1.173
 1086SOL     OW 3266   1.001   3.758   1.154
 1086SOL    HW1 3267   0.938   3.686   1.123
 1086SOL    HW2 3268   1.094   3.722   1.154
 1087SOL     OW 3269   1.352   3.776   0.168
 1087SOL    HW1 3270   1.387   3.735   0.084
 1087SOL    HW2 3271   1.262   3.738   0.188
 1088SOL     OW 3272   1.300   4.177   0.691
 1088SOL    HW1 3273   1.241   4.257   0.695
 1088SOL    HW2 3274   1.315   4.142   0.784
 1089SOL     OW 3275   1.593   3.945   0.882
 1089SOL    HW1 3276   1.509   3.944   0.936
 1089SOL    HW2 3277   1.595   4.028   0.826
 1090SOL     OW 3278   0.225   3.999   2.858
 1090SOL    HW1 3279   0.260   3.982   2.950
 1090SOL    HW2 3280   0.137   3.954   2.846
 1091SOL     OW 3281   0.019   4.092   2.509
 1091SOL    HW1 3282  -0.063   4.135   2.548
 1091SOL    HW2 3283  -0.009   4.019   2.446
 1092SOL     OW 3284   1.755   4.331   2.093
 1092SOL    HW1 3285   1.743   4.318   1.994
 1092SOL    HW2 3286   1.725   4.250   2.142
 1093SOL     OW 3287   0.438   4.116   3.361
 1093SOL    HW1 3288   0.520   4.060   3.370
 1093SOL    HW2 3289   0.357   4.058   3.365
 1094SOL     OW 3290   1.603   4.171   2.599
 1094SOL    HW1 3291   1.529   4.217   2.549
 1094SOL    HW2 3292   1.654   4.239   2.652
 1095SOL     OW 3293   1.594   3.838   3.342
 1095SOL    HW1 3294   1.576   3.905   3.270
 1095SOL    HW2 3295   1.591   3.884   3.431
 1096SOL     OW 3296   0.122   4.367   2.425
 1096SOL    HW1 3297   0.077   4.279   2.442
 1096SOL    HW2 3298   0.121   4.421   2.509
 1097SOL     OW 3299   0.113   4.461   3.459
 1097SOL    HW1 3300   0.201   4.448   3.504
 1097SOL    HW2 3301   0.100   4.558   3.437
 1098SOL     OW 3302   0.809   3.728   2.364
 1098SOL    HW1 3303   0.849   3.819   2.355
 1098SOL    HW2 3304   0.709   3.736   2.370
 1099SOL     OW 3305   0.317   3.975   3.663
 1099SOL    HW1 3306   0.388   4.046   3.669
 1099SOL    HW2 3307   0.229   4.014   3.691
 1100SOL     OW 3308   1.281   4.069   2.806
 1100SOL    HW1 3309   1.195   4.019   2.793
 1100SOL    HW2 3310   1.343   4.015   2.862
 1101SOL     OW 3311   0.807   4.329   3.327
 1101SOL    HW1 3312   0.760   4.326   3.416
 1101SOL    HW2 3313   0.756   4.274   3.261
 1102SOL     OW 3314   1.394   4.193   3.536
 1102SOL    HW1 3315   1.374   4.236   3.624
 1102SOL    HW2 3316   1.472   4.131   3.545
 1103SOL     OW 3317   0.991   4.134   3.104
 1103SOL    HW1 3318   0.914   4.168   3.158
 1103SOL    HW2 3319   0.957   4.083   3.025
 1104SOL     OW 3320   1.041   4.425   2.291
 1104SOL    HW1 3321   1.067   4.421   2.387
 1104SOL    HW2 3322   0.956   4.374   2.277
 1105SOL     OW 3323   0.076   4.535   2.651
 1105SOL    HW1 3324   0.175   4.523   2.660
 1105SOL    HW2 3325   0.052   4.630   2.672
 1106SOL     OW 3326   0.865   4.072   2.057
 1106SOL    HW1 3327   0.924   4.135   2.008
 1106SOL    HW2 3328   0.884   3.978   2.028
 1107SOL     OW 3329   1.719   4.309   3.693
 1107SOL    HW1 3330   1.693   4.398   3.657
 1107SOL    HW2 3331   1.717   4.241   3.620
 1108SOL     OW 3332   0.550   3.920   2.747
 1108SOL    HW1 3333   0.545   3.915   2.847
 1108SOL    HW2 3334   0.552   4.016   2.718
 1109SOL     OW 3335   1.458   4.459   2.590
 1109SOL    HW1 3336   1.453   4.394   2.665
 1109SOL    HW2 3337   1.538   4.518   2.603
 1110SOL     OW 3338   0.202   4.009   3.360
 1110SOL    HW1 3339   0.122   4.069   3.347
 1110SOL    HW2 3340   0.192   3.960   3.446
 1111SOL     OW 3341   1.400   3.831   2.288
 1111SOL    HW1 3342   1.376   3.794   2.198
 1111SOL    HW2 3343   1.499   3.847   2.292
 1112SOL     OW 3344   1.547   3.946   3.591
 1112SOL    HW1 3345   1.542   3.983   3.683
 1112SOL    HW2 3346   1.475   3.877   3.579
 1113SOL     OW 3347   0.614   3.846   1.979
 1113SOL    HW1 3348   0.712   3.824   1.986
 1113SOL    HW2 3349   0.583   3.829   1.886
 1114SOL     OW 3350   0.781   3.988   3.611
 1114SOL    HW1 3351   0.848   3.927   3.654
 1114SOL    HW2 3352   0.708   4.007   3.676
 1115SOL     OW 3353   1.351   4.314   3.295
 1115SOL    HW1 3354   1.379   4.271   3.380
 1115SOL    HW2 3355   1.376   4.410   3.296
 1116SOL     OW 3356   0.922   4.227   2.761
 1116SOL    HW1 3357   0.897   4.218   2.665
 1116SOL    HW2 3358   0.970   4.145   2.792
 1117SOL     OW 3359   0.539   3.788   2.374
 1117SOL    HW1 3360   0.458   3.789   2.432
 1117SOL    HW2 3361   0.542   3.871   2.319
 1118SOL     OW 3362   0.297   3.759   2.033
 1118SOL    HW1 3363   0.346   3.843   2.012
 1118SOL    HW2 3364   0.359   3.694   2.078
 1119SOL     OW 3365   0.935   3.960   2.342
 1119SOL    HW1 3366   0.887   4.001   2.264
 1119SOL    HW2 3367   1.034   3.958   2.323
 1120SOL     OW 3368   1.076   4.407   3.326
 1120SOL    HW1 3369   0.996   4.346   3.329
 1120SOL    HW2 3370   1.157   4.354   3.302
 1121SOL     OW 3371   1.032   4.273   1.878
 1121SOL    HW1 3372   0.991   4.355   1.839
 1121SOL    HW2 3373   1.096   4.299   1.951
 1122SOL     OW 3374   0.078   4.280   3.248
 1122SOL    HW1 3375   0.170   4.279   3.207
 1122SOL    HW2 3376   0.072   4.354   3.315
 1123SOL     OW 3377   0.561   3.946   3.009
 1123SOL    HW1 3378   0.599   3.862   3.046
 1123SOL    HW2 3379   0.473   3.965   3.053
 1124SOL     OW 3380   0.866   4.178   2.504
 1124SOL    HW1 3381   0.834   4.250   2.442
 1124SOL    HW2 3382   0.890   4.097   2.451
 1125SOL     OW 3383   1.017   3.763   2.615
 1125SOL    HW1 3384   0.945   3.768   2.546
 1125SOL    HW2 3385   0.993   3.694   2.684
 1126SOL     OW 3386   1.466   4.314   2.854
 1126SOL    HW1 3387   1.436   4.219   2.861
 1126SOL    HW2 3388   1.539   4.330   2.920
 1127SOL     OW 3389   0.527   3.980   2.190
 1127SOL    HW1 3390   0.554   3.921   2.115
 1127SOL    HW2 3391   0.527   4.075   2.159
 1128SOL     OW 3392   0.915   3.813   3.264
 1128SOL    HW1 3393   0.940   3.793   3.169
 1128SOL    HW2 3394   0.987   3.869   3.306
 1129SOL     OW 3395   1.274   4.110   3.124
 1129SOL    HW1 3396   1.295   4.184   3.188
 1129SOL    HW2 3397   1.185   4.127   3.081
 1130SOL     OW 3398   0.566   4.261   2.727
 1130SOL    HW1 3399   0.578   4.327   2.653
 1130SOL    HW2 3400   0.612   4.295   2.810
 1131SOL     OW 3401   1.582   4.363   2.334
 1131SOL    HW1 3402   1.551   4.424   2.407
 1131SOL    HW2 3403   1.632   4.415   2.265
 1132SOL     OW 3404   1.013   3.829   3.632
 1132SOL    HW1 3405   1.019   3.914   3.580
 1132SOL    HW2 3406   1.045   3.753   3.575
 1133SOL     OW 3407   0.504   3.774   3.602
 1133SOL    HW1 3408   0.462   3.717   3.532
 1133SOL    HW2 3409   0.438   3.843   3.634
 1134SOL     OW 3410   1.209   4.249   2.137
 1134SOL    HW1 3411   1.222   4.165   2.191
 1134SOL    HW2 3412   1.180   4.323   2.197
 1135SOL     OW 3413   0.307   3.937   3.093
 1135SOL    HW1 3414   0.284   3.974   3.183
 1135SOL    HW2 3415   0.277   3.842   3.087
 1136SOL     OW 3416   0.732   4.358   2.926
 1136SOL    HW1 3417   0.791   4.332   2.850
 1136SOL    HW2 3418   0.704   4.454   2.915
 1137SOL     OW 3419   0.307   3.787   2.480
 1137SOL    HW1 3420   0.296   3.881   2.513
 1137SOL    HW2 3421   0.302   3.724   2.557
 1138SOL     OW 3422   1.622   4.091   2.236
 1138SOL    HW1 3423   1.624   4.015   2.300
 1138SOL    HW2 3424   1.574   4.168   2.276
 1139SOL     OW 3425   1.540   3.998   1.987
 1139SOL    HW1 3426   1.479   3.923   2.010
 1139SOL    HW2 3427   1.562   4.050   2.070
 1140SOL     OW 3428   0.319   4.534   2.811
 1140SOL    HW1 3429   0.412   4.570   2.816
 1140SOL    HW2 3430   0.313   4.449   2.863
 1141SOL     OW 3431   0.339   4.233   2.868
 1141SOL    HW1 3432   0.287   4.150   2.851
 1141SOL    HW2 3433   0.416   4.238   2.804
 1142SOL     OW 3434   1.138   4.104   3.540
 1142SOL    HW1 3435   1.093   4.167   3.604
 1142SOL    HW2 3436   1.231   4.135   3.523
 1143SOL     OW 3437   1.160   3.931   3.339
 1143SOL    HW1 3438   1.160   3.995   3.416
 1143SOL    HW2 3439   1.188   3.979   3.256
 1144SOL     OW 3440   0.040   4.268   2.976
 1144SOL    HW1 3441   0.125   4.235   2.935
 1144SOL    HW2 3442   0.053   4.283   3.074
 1145SOL     OW 3443   0.189   4.244   3.584
 1145SOL    HW1 3444   0.248   4.204   3.514
 1145SOL    HW2 3445   0.131   4.315   3.543
 1146SOL     OW 3446   0.815   4.296   2.187
 1146SOL    HW1 3447   0.822   4.207   2.141
 1146SOL    HW2 3448   0.721   4.330   2.179
 1147SOL     OW 3449   1.657   4.328   3.068
 1147SOL    HW1 3450   1.619   4.259   3.130
 1147SOL    HW2 3451   1.739   4.292   3.024
 1148SOL     OW 3452   0.671   4.188   3.131
 1148SOL    HW1 3453   0.637   4.099   3.101
 1148SOL    HW2 3454   0.697   4.242   3.051
 1149SOL     OW 3455   0.473   4.224   2.053
 1149SOL    HW1 3456   0.534   4.304   2.057
 1149SOL    HW2 3457   0.378   4.255   2.060
 1150SOL     OW 3458   1.726   3.859   2.385
 1150SOL    HW1 3459   1.799   3.842   2.318
 1150SOL    HW2 3460   1.695   3.772   2.423
 1151SOL     OW 3461   1.280   4.651   2.534
 1151SOL    HW1 3462   1.340   4.570   2.536
 1151SOL    HW2 3463   1.320   4.720   2.474
 1152SOL     OW 3464   1.841   3.899   2.825
 1152SOL    HW1 3465   1.880   3.814   2.789
 1152SOL    HW2 3466   1.743   3.901   2.806
 1153SOL     OW 3467   0.263   4.050   2.582
 1153SOL    HW1 3468   0.184   4.101   2.548
 1153SOL    HW2 3469   0.254   4.035   2.680
 1154SOL     OW 3470   1.014   3.960   2.833
 1154SOL    HW1 3471   1.006   3.924   2.740
 1154SOL    HW2 3472   1.012   3.884   2.898
 1155SOL     OW 3473   1.709   4.109   3.243
 1155SOL    HW1 3474   1.782   4.178   3.247
 1155SOL    HW2 3475   1.737   4.034   3.184
 1156SOL     OW 3476   0.672   3.927   3.351
 1156SOL    HW1 3477   0.762   3.911   3.311
 1156SOL    HW2 3478   0.680   3.932   3.450
 1157SOL     OW 3479   0.075   4.069   1.895
 1157SOL    HW1 3480  -0.017   4.041   1.866
 1157SOL    HW2 3481   0.106   4.146   1.839
 1158SOL     OW 3482   0.072   3.890   2.180
 1158SOL    HW1 3483   0.055   3.973   2.126
 1158SOL    HW2 3484   0.162   3.853   2.158
 1159SOL     OW 3485   0.716   4.289   3.570
 1159SOL    HW1 3486   0.735   4.354   3.644
 1159SOL    HW2 3487   0.776   4.209   3.579
 1160SOL     OW 3488   1.225   4.049   2.311
 1160SOL    HW1 3489   1.290   3.975   2.300
 1160SOL    HW2 3490   1.245   4.099   2.395
 1161SOL     OW 3491   1.777   4.066   3.504
 1161SOL    HW1 3492   1.760   4.097   3.410
 1161SOL    HW2 3493   1.693   4.029   3.542
 1162SOL     OW 3494   1.083   4.708   1.949
 1162SOL    HW1 3495   1.060   4.761   1.867
 1162SOL    HW2 3496   1.164   4.652   1.930
 1163SOL     OW 3497   1.824   3.916   3.089
 1163SOL    HW1 3498   1.820   3.826   3.133
 1163SOL    HW2 3499   1.827   3.905   2.990
 1164SOL     OW 3500   0.428   4.148   2.382
 1164SOL    HW1 3501   0.458   4.076   2.320
 1164SOL    HW2 3502   0.389   4.108   2.465
 1165SOL     OW 3503   0.317   4.271   3.142
 1165SOL    HW1 3504   0.355   4.212   3.214
 1165SOL    HW2 3505   0.357   4.245   3.054
 1166SOL     OW 3506   1.424   3.938   2.974
 1166SOL    HW1 3507   1.476   3.873   3.029
 1166SOL    HW2 3508   1.375   4.001   3.035
 1167SOL     OW 3509   1.001   3.758   3.016
 1167SOL    HW1 3510   0.938   3.686   2.985
 1167SOL    HW2 3511   1.094   3.722   3.016
 1168SOL     OW 3512   1.352   3.776   2.030
 1168SOL    HW1 3513   1.387   3.735   1.946
 1168SOL    HW2 3514   1.262   3.738   2.050
 1169SOL     OW 3515   1.300   4.177   2.553
 1169SOL    HW1 3516   1.241   4.257   2.557
 1169SOL    HW2 3517   1.315   4.142   2.646
 1170SOL     OW 3518   1.593   3.945   2.744
 1170SOL    HW1 3519   1.509   3.944   2.798
 1170SOL    HW2 3520   1.595   4.028   2.688
 1171SOL     OW 3521   1.135   4.427   4.441
 1171SOL    HW1 3522   1.192   4.505   4.416
 1171SOL    HW2 3523   1.075   4.453   4.517
 1172SOL     OW 3524   1.755   4.331   3.955
 1172SOL    HW1 3525   1.743   4.318   3.856
 1172SOL    HW2 3526   1.725   4.250   4.004
 1173SOL     OW 3527   0.122   4.367   4.287
 1173SOL    HW1 3528   0.077   4.279   4.304
 1173SOL    HW2 3529   0.121   4.421   4.371
 1174SOL     OW 3530   0.809   3.728   4.226
 1174SOL    HW1 3531   0.849   3.819   4.217
 1174SOL    HW2 3532   0.709   3.736   4.232
 1175SOL     OW 3533   1.041   4.425   4.153
 1175SOL    HW1 3534   1.067   4.421   4.249
 1175SOL    HW2 3535   0.956   4.374   4.139
 1176SOL     OW 3536   0.076   4.535   4.513
 1176SOL    HW1 3537   0.175   4.523   4.522
 1176SOL    HW2 3538   0.052   4.630   4.534
 1177SOL     OW 3539   0.865   4.072   3.919
 1177SOL    HW1 3540   0.924   4.135   3.870
 1177SOL    HW2 3541   0.884   3.978   3.890
 1178SOL     OW 3542   1.400   3.831   4.150
 1178SOL    HW1 3543   1.376   3.794   4.060
 1178SOL    HW2 3544   1.499   3.847   4.154
 1179SOL     OW 3545   0.614   3.846   3.841
 1179SOL    HW1 3546   0.712   3.824   3.848
 1179SOL    HW2 3547   0.583   3.829   3.748
 1180SOL     OW 3548   0.539   3.788   4.236
 1180SOL    HW1 3549   0.458   3.789   4.294
 1180SOL    HW2 3550   0.542   3.871   4.181
 1181SOL     OW 3551   0.297   3.759   3.895
 1181SOL    HW1 3552   0.346   3.843   3.874
 1181SOL    HW2 3553   0.359   3.694   3.940
 1182SOL     OW 3554   0.935   3.960   4.204
 1182SOL    HW1 3555   0.887   4.001   4.126
 1182SOL    HW2 3556   1.034   3.958   4.185
 1183SOL     OW 3557   1.032   4.273   3.740
 1183SOL    HW1 3558   0.991   4.355   3.701
 1183SOL    HW2 3559   1.096   4.299   3.813
 1184SOL     OW 3560   0.866   4.178   4.366
 1184SOL    HW1 3561   0.834   4.250   4.304
 1184SOL    HW2 3562   0.890   4.097   4.313
 1185SOL     OW 3563   0.527   3.980   4.052
 1185SOL    HW1 3564   0.554   3.921   3.977
 1185SOL    HW2 3565   0.527   4.075   4.021
 1186SOL     OW 3566   1.582   4.363   4.196
 1186SOL    HW1 3567   1.551   4.424   4.269
 1186SOL    HW2 3568   1.632   4.415   4.127
 1187SOL     OW 3569   1.209   4.249   3.999
 1187SOL    HW1 3570   1.222   4.165   4.053
 1187SOL    HW2 3571   1.180   4.323   4.059
 1188SOL     OW 3572   0.307   3.787   4.342
 1188SOL    HW1 3573   0.296   3.881   4.375
 1188SOL    HW2 3574   0.302   3.724   4.419
 1189SOL     OW 3575   1.622   4.091   4.098
 1189SOL    HW1 3576   1.624   4.015   4.162
 1189SOL    HW2 3577   1.574   4.168   4.138
 1190SOL     OW 3578   1.540   3.998   3.849
 1190SOL    HW1 3579   1.479   3.923   3.872
 1190SOL    HW2 3580   1.562   4.050   3.932
 1191SOL     OW 3581   0.815   4.296   4.049
 1191SOL    HW1 3582   0.822   4.207   4.003
 1191SOL    HW2 3583   0.721   4.330   4.041
 1192SOL     OW 3584   0.473   4.224   3.915
 1192SOL    HW1 3585   0.534   4.304   3.919
 1192SOL    HW2 3586   0.378   4.255   3.922
 1193SOL     OW 3587   1.726   3.859   4.247
 1193SOL    HW1 3588   1.799   3.842   4.180
 1193SOL    HW2 3589   1.695   3.772   4.285
 1194SOL     OW 3590   1.280   4.651   4.396
 1194SOL    HW1 3591   1.340   4.570   4.398
 1194SOL    HW2 3592   1.320   4.720   4.336
 1195SOL     OW 3593   1.841   3.899   4.687
 1195SOL    HW1 3594   1.880   3.814   4.651
 1195SOL    HW2 3595   1.743   3.901   4.668
 1196SOL     OW 3596   0.075   4.069   3.757
 1196SOL    HW1 3597  -0.017   4.041   3.728
 1196SOL    HW2 3598   0.106   4.146   3.701
 1197SOL     OW 3599   0.072   3.890   4.042
 1197SOL    HW1 3600   0.055   3.973   3.988
 1197SOL    HW2 3601   0.162   3.853   4.020
 1198SOL     OW 3602   1.225   4.049   4.173
 1198SOL    HW1 3603   1.290   3.975   4.162
 1198SOL    HW2 3604   1.245   4.099   4.257
 1199SOL     OW 3605   1.083   4.708   3.811
 1199SOL    HW1 3606   1.060   4.761   3.729
 1199SOL    HW2 3607   1.164   4.652   3.792
 1200SOL     OW 3608   0.428   4.148   4.244
 1200SOL    HW1 3609   0.458   4.076   4.182
 1200SOL    HW2 3610   0.389   4.108   4.327
 1201SOL     OW 3611   1.352   3.776   3.892
 1201SOL    HW1 3612   1.387   3.735   3.808
 1201SOL    HW2 3613   1.262   3.738   3.912
 1202SOL     OW 3614   1.300   4.177   4.415
 1202SOL    HW1 3615   1.241   4.257   4.419
 1202SOL    HW2 3616   1.315   4.142   4.508
 1203SOL     OW 3617   2.092   0.628   0.113
 1203SOL    HW1 3618   1.999   0.626   0.150
 1203SOL    HW2 3619   2.093   0.589   0.021
 1204SOL     OW 3620   2.087   0.275   0.996
 1204SOL    HW1 3621   2.122   0.258   1.088
 1204SOL    HW2 3622   1.999   0.230   0.984
 1205SOL     OW 3623   1.881   0.368   0.647
 1205SOL    HW1 3624   1.799   0.411   0.686
 1205SOL    HW2 3625   1.853   0.295   0.584
 1206SOL     OW 3626   2.431   1.275   1.165
 1206SOL    HW1 3627   2.338   1.268   1.128
 1206SOL    HW2 3628   2.442   1.364   1.209
 1207SOL     OW 3629   3.417   1.511   0.703
 1207SOL    HW1 3630   3.360   1.495   0.784
 1207SOL    HW2 3631   3.358   1.521   0.623
 1208SOL     OW 3632   2.997   0.703   0.717
 1208SOL    HW1 3633   3.054   0.781   0.692
 1208SOL    HW2 3634   2.937   0.729   0.793
 1209SOL     OW 3635   3.617   0.607   0.231
 1209SOL    HW1 3636   3.605   0.594   0.132
 1209SOL    HW2 3637   3.587   0.526   0.280
 1210SOL     OW 3638   2.630   1.144   1.023
 1210SOL    HW1 3639   2.552   1.161   1.083
 1210SOL    HW2 3640   2.664   1.231   0.987
 1211SOL     OW 3641   2.712   0.798   1.823
 1211SOL    HW1 3642   2.708   0.874   1.888
 1211SOL    HW2 3643   2.734   0.834   1.732
 1212SOL     OW 3644   2.547   1.012   0.665
 1212SOL    HW1 3645   2.616   0.996   0.735
 1212SOL    HW2 3646   2.474   1.069   0.703
 1213SOL     OW 3647   2.548   1.161   1.803
 1213SOL    HW1 3648   2.608   1.240   1.817
 1213SOL    HW2 3649   2.462   1.192   1.762
 1214SOL     OW 3650   2.197   1.435   1.061
 1214SOL    HW1 3651   2.119   1.404   1.008
 1214SOL    HW2 3652   2.255   1.493   1.004
 1215SOL     OW 3653   3.322   1.505   1.339
 1215SOL    HW1 3654   3.346   1.599   1.365
 1215SOL    HW2 3655   3.306   1.451   1.421
 1216SOL     OW 3656   2.300   0.392   1.499
 1216SOL    HW1 3657   2.382   0.336   1.508
 1216SOL    HW2 3658   2.219   0.334   1.503
 1217SOL     OW 3659   3.465   0.447   0.737
 1217SOL    HW1 3660   3.391   0.493   0.687
 1217SOL    HW2 3661   3.516   0.515   0.790
 1218SOL     OW 3662   2.093   1.713   0.483
 1218SOL    HW1 3663   2.127   1.790   0.537
 1218SOL    HW2 3664   2.137   1.713   0.393
 1219SOL     OW 3665   2.989   1.341   1.690
 1219SOL    HW1 3666   3.036   1.341   1.778
 1219SOL    HW2 3667   2.941   1.254   1.679
 1220SOL     OW 3668   2.092   1.434   0.538
 1220SOL    HW1 3669   2.066   1.530   0.538
 1220SOL    HW2 3670   2.021   1.380   0.583
 1221SOL     OW 3671   2.102   1.091   0.886
 1221SOL    HW1 3672   2.116   1.007   0.938
 1221SOL    HW2 3673   2.047   1.155   0.941
 1222SOL     OW 3674   2.482   1.786   1.439
 1222SOL    HW1 3675   2.390   1.769   1.474
 1222SOL    HW2 3676   2.510   1.878   1.465
 1223SOL     OW 3677   2.468   0.964   0.123
 1223SOL    HW1 3678   2.475   1.048   0.069
 1223SOL    HW2 3679   2.514   0.977   0.211
 1224SOL     OW 3680   3.456   0.114   1.480
 1224SOL    HW1 3681   3.438   0.181   1.408
 1224SOL    HW2 3682   3.453   0.160   1.569
 1225SOL     OW 3683   1.984   0.643   0.563
 1225SOL    HW1 3684   1.939   0.555   0.580
 1225SOL    HW2 3685   1.983   0.697   0.647
 1226SOL     OW 3686   3.704   1.767   0.359
 1226SOL    HW1 3687   3.758   1.738   0.439
 1226SOL    HW2 3688   3.734   1.857   0.330
 1227SOL     OW 3689   1.889   1.596   0.117
 1227SOL    HW1 3690   1.870   1.500   0.138
 1227SOL    HW2 3691   1.856   1.654   0.192
 1228SOL     OW 3692   3.551   0.922   0.612
 1228SOL    HW1 3693   3.646   0.893   0.620
 1228SOL    HW2 3694   3.543   0.987   0.537
 1229SOL     OW 3695   3.503   1.108   0.432
 1229SOL    HW1 3696   3.589   1.110   0.380
 1229SOL    HW2 3697   3.517   1.155   0.520
 1230SOL     OW 3698   1.975   0.737   1.597
 1230SOL    HW1 3699   2.063   0.724   1.642
 1230SOL    HW2 3700   1.962   0.834   1.575
 1231SOL     OW 3701   2.475   1.365   0.726
 1231SOL    HW1 3702   2.426   1.278   0.735
 1231SOL    HW2 3703   2.452   1.408   0.639
 1232SOL     OW 3704   3.155   1.228   1.423
 1232SOL    HW1 3705   3.192   1.155   1.365
 1232SOL    HW2 3706   3.207   1.233   1.508
 1233SOL     OW 3707   2.671   0.004   0.502
 1233SOL    HW1 3708   2.711   0.095   0.493
 1233SOL    HW2 3709   2.571   0.012   0.508
 1234SOL     OW 3710   2.059   0.976   1.264
 1234SOL    HW1 3711   2.148   0.931   1.250
 1234SOL    HW2 3712   1.986   0.911   1.245
 1235SOL     OW 3713   3.387   0.999   0.190
 1235SOL    HW1 3714   3.324   0.923   0.203
 1235SOL    HW2 3715   3.435   1.017   0.276
 1236SOL     OW 3716   3.049   1.792   1.616
 1236SOL    HW1 3717   3.073   1.852   1.540
 1236SOL    HW2 3718   3.056   1.697   1.586
 1237SOL     OW 3719   2.179   0.251   1.801
 1237SOL    HW1 3720   2.250   0.322   1.807
 1237SOL    HW2 3721   2.091   0.290   1.829
 1238SOL     OW 3722   3.328   1.417   0.953
 1238SOL    HW1 3723   3.269   1.423   1.033
 1238SOL    HW2 3724   3.313   1.329   0.907
 1239SOL     OW 3725   3.529   1.714   0.572
 1239SOL    HW1 3726   3.488   1.691   0.484
 1239SOL    HW2 3727   3.511   1.640   0.637
 1240SOL     OW 3728   2.460   0.729   0.270
 1240SOL    HW1 3729   2.484   0.798   0.202
 1240SOL    HW2 3730   2.382   0.762   0.324
 1241SOL     OW 3731   3.143   0.345   0.944
 1241SOL    HW1 3732   3.057   0.295   0.931
 1241SOL    HW2 3733   3.205   0.291   1.000
 1242SOL     OW 3734   3.438   1.662   0.307
 1242SOL    HW1 3735   3.527   1.708   0.310
 1242SOL    HW2 3736   3.417   1.638   0.212
 1243SOL     OW 3737   2.669   0.605   1.465
 1243SOL    HW1 3738   2.622   0.602   1.554
 1243SOL    HW2 3739   2.618   0.550   1.399
 1244SOL     OW 3740   3.256   0.469   1.674
 1244SOL    HW1 3741   3.236   0.512   1.762
 1244SOL    HW2 3742   3.334   0.407   1.683
 1245SOL     OW 3743   2.835   0.890   1.572
 1245SOL    HW1 3744   2.881   0.806   1.543
 1245SOL    HW2 3745   2.779   0.924   1.497
 1246SOL     OW 3746   2.853   0.410   1.242
 1246SOL    HW1 3747   2.776   0.444   1.296
 1246SOL    HW2 3748   2.819   0.359   1.163
 1247SOL     OW 3749   2.903   0.701   0.429
 1247SOL    HW1 3750   2.929   0.697   0.525
 1247SOL    HW2 3751   2.818   0.650   0.415
 1248SOL     OW 3752   1.938   0.811   0.789
 1248SOL    HW1 3753   2.037   0.799   0.798
 1248SOL    HW2 3754   1.914   0.906   0.810
 1249SOL     OW 3755   1.992   1.821   1.571
 1249SOL    HW1 3756   1.982   1.806   1.670
 1249SOL    HW2 3757   1.906   1.857   1.535
 1250SOL     OW 3758   2.727   0.348   0.195
 1250SOL    HW1 3759   2.786   0.411   0.146
 1250SOL    HW2 3760   2.746   0.254   0.166
 1251SOL     OW 3761   3.581   0.585   1.831
 1251SOL    HW1 3762   3.555   0.674   1.795
 1251SOL    HW2 3763   3.579   0.517   1.758
 1252SOL     OW 3764   3.224   1.144   0.545
 1252SOL    HW1 3765   3.307   1.115   0.497
 1252SOL    HW2 3766   3.175   1.211   0.489
 1253SOL     OW 3767   2.412   0.196   0.885
 1253SOL    HW1 3768   2.407   0.191   0.985
 1253SOL    HW2 3769   2.414   0.292   0.856
 1254SOL     OW 3770   2.870   1.456   0.477
 1254SOL    HW1 3771   2.824   1.528   0.425
 1254SOL    HW2 3772   2.866   1.476   0.575
 1255SOL     OW 3773   2.213   1.801   0.853
 1255SOL    HW1 3774   2.263   1.715   0.859
 1255SOL    HW2 3775   2.278   1.878   0.850
 1256SOL     OW 3776   3.657   1.066   0.873
 1256SOL    HW1 3777   3.595   1.051   0.797
 1256SOL    HW2 3778   3.605   1.077   0.958
 1257SOL     OW 3779   3.089   1.550   1.506
 1257SOL    HW1 3780   3.095   1.473   1.570
 1257SOL    HW2 3781   3.037   1.524   1.426
 1258SOL     OW 3782   2.183   0.943   0.242
 1258SOL    HW1 3783   2.265   0.982   0.200
 1258SOL    HW2 3784   2.156   0.861   0.193
 1259SOL     OW 3785   3.320   0.735   0.728
 1259SOL    HW1 3786   3.315   0.670   0.803
 1259SOL    HW2 3787   3.400   0.794   0.741
 1260SOL     OW 3788   2.323   1.266   1.727
 1260SOL    HW1 3789   2.273   1.267   1.641
 1260SOL    HW2 3790   2.260   1.248   1.803
 1261SOL     OW 3791   2.973   1.776   0.237
 1261SOL    HW1 3792   2.913   1.714   0.287
 1261SOL    HW2 3793   3.004   1.732   0.152
 1262SOL     OW 3794   2.064   0.285   1.498
 1262SOL    HW1 3795   1.984   0.345   1.485
 1262SOL    HW2 3796   2.054   0.236   1.584
 1263SOL     OW 3797   3.494   1.377   0.081
 1263SOL    HW1 3798   3.462   1.471   0.071
 1263SOL    HW2 3799   3.418   1.314   0.069
 1264SOL     OW 3800   2.326   1.743   0.323
 1264SOL    HW1 3801   2.359   1.782   0.409
 1264SOL    HW2 3802   2.402   1.736   0.258
 1265SOL     OW 3803   3.262   0.107   0.426
 1265SOL    HW1 3804   3.238   0.070   0.336
 1265SOL    HW2 3805   3.361   0.123   0.430
 1266SOL     OW 3806   2.111   1.785   1.241
 1266SOL    HW1 3807   2.168   1.720   1.291
 1266SOL    HW2 3808   2.095   1.752   1.148
 1267SOL     OW 3809   2.802   1.698   0.904
 1267SOL    HW1 3810   2.882   1.641   0.925
 1267SOL    HW2 3811   2.753   1.658   0.827
 1268SOL     OW 3812   2.244   0.700   0.480
 1268SOL    HW1 3813   2.289   0.610   0.477
 1268SOL    HW2 3814   2.150   0.689   0.513
 1269SOL     OW 3815   3.409   0.222   1.729
 1269SOL    HW1 3816   3.404   0.259   1.821
 1269SOL    HW2 3817   3.337   0.153   1.717
 1270SOL     OW 3818   2.476   0.122   0.117
 1270SOL    HW1 3819   2.574   0.100   0.124
 1270SOL    HW2 3820   2.445   0.105   0.024
 1271SOL     OW 3821   2.643   0.264   1.749
 1271SOL    HW1 3822   2.710   0.203   1.792
 1271SOL    HW2 3823   2.570   0.283   1.814
 1272SOL     OW 3824   2.750   1.514   1.195
 1272SOL    HW1 3825   2.727   1.489   1.101
 1272SOL    HW2 3826   2.811   1.445   1.234
 1273SOL     OW 3827   3.213   0.590   1.433
 1273SOL    HW1 3828   3.241   0.547   1.518
 1273SOL    HW2 3829   3.238   0.686   1.434
 1274SOL     OW 3830   2.665   1.402   0.924
 1274SOL    HW1 3831   2.755   1.416   0.882
 1274SOL    HW2 3832   2.594   1.404   0.853
 1275SOL     OW 3833   2.784   0.503   0.899
 1275SOL    HW1 3834   2.759   0.494   0.803
 1275SOL    HW2 3835   2.832   0.421   0.930
 1276SOL     OW 3836   2.401   0.064   0.512
 1276SOL    HW1 3837   2.320   0.065   0.570
 1276SOL    HW2 3838   2.404   0.147   0.457
 1277SOL     OW 3839   3.296   1.188   0.041
 1277SOL    HW1 3840   3.328   1.112   0.098
 1277SOL    HW2 3841   3.204   1.215   0.071
 1278SOL     OW 3842   2.159   0.035   0.171
 1278SOL    HW1 3843   2.208   0.119   0.150
 1278SOL    HW2 3844   2.221  -0.030   0.216
 1279SOL     OW 3845   2.797   0.236   0.480
 1279SOL    HW1 3846   2.749   0.277   0.402
 1279SOL    HW2 3847   2.896   0.234   0.461
 1280SOL     OW 3848   2.938   0.683   1.464
 1280SOL    HW1 3849   2.858   0.622   1.467
 1280SOL    HW2 3850   3.019   0.630   1.440
 1281SOL     OW 3851   3.089   1.570   0.793
 1281SOL    HW1 3852   3.110   1.644   0.728
 1281SOL    HW2 3853   3.157   1.570   0.866
 1282SOL     OW 3854   2.321   1.152   0.741
 1282SOL    HW1 3855   2.250   1.125   0.806
 1282SOL    HW2 3856   2.295   1.124   0.648
 1283SOL     OW 3857   3.133   1.797   0.591
 1283SOL    HW1 3858   3.177   1.861   0.527
 1283SOL    HW2 3859   3.083   1.849   0.661
 1284SOL     OW 3860   2.894   0.549   0.016
 1284SOL    HW1 3861   2.853   0.631  -0.023
 1284SOL    HW2 3862   2.958   0.575   0.089
 1285SOL     OW 3863   1.940   0.556   1.386
 1285SOL    HW1 3864   2.032   0.555   1.345
 1285SOL    HW2 3865   1.934   0.630   1.453
 1286SOL     OW 3866   2.423   0.222   1.147
 1286SOL    HW1 3867   2.461   0.138   1.184
 1286SOL    HW2 3868   2.335   0.241   1.191
 1287SOL     OW 3869   2.728   0.454   0.642
 1287SOL    HW1 3870   2.696   0.526   0.580
 1287SOL    HW2 3871   2.752   0.373   0.589
 1288SOL     OW 3872   2.879   0.039   0.753
 1288SOL    HW1 3873   2.807   0.044   0.684
 1288SOL    HW2 3874   2.855  -0.030   0.822
 1289SOL     OW 3875   3.291   1.173   0.867
 1289SOL    HW1 3876   3.236   1.089   0.860
 1289SOL    HW2 3877   3.317   1.202   0.775
 1290SOL     OW 3878   3.328   0.590   0.992
 1290SOL    HW1 3879   3.298   0.495   0.999
 1290SOL    HW2 3880   3.401   0.606   1.058
 1291SOL     OW 3881   3.719   0.833   0.377
 1291SOL    HW1 3882   3.761   0.769   0.441
 1291SOL    HW2 3883   3.681   0.782   0.299
 1292SOL     OW 3884   2.350   1.385   0.174
 1292SOL    HW1 3885   2.263   1.370   0.221
 1292SOL    HW2 3886   2.333   1.411   0.079
 1293SOL     OW 3887   3.526   1.280   0.657
 1293SOL    HW1 3888   3.625   1.288   0.671
 1293SOL    HW2 3889   3.481   1.364   0.688
 1294SOL     OW 3890   3.252   0.575   0.078
 1294SOL    HW1 3891   3.198   0.554   0.159
 1294SOL    HW2 3892   3.343   0.534   0.087
 1295SOL     OW 3893   2.389   0.256   0.328
 1295SOL    HW1 3894   2.416   0.197   0.253
 1295SOL    HW2 3895   2.389   0.351   0.297
 1296SOL     OW 3896   3.616   1.223   1.588
 1296SOL    HW1 3897   3.707   1.184   1.575
 1296SOL    HW2 3898   3.624   1.319   1.612
 1297SOL     OW 3899   2.926   1.347   1.340
 1297SOL    HW1 3900   2.846   1.324   1.395
 1297SOL    HW2 3901   3.009   1.321   1.389
 1298SOL     OW 3902   3.454   1.629   1.625
 1298SOL    HW1 3903   3.481   1.663   1.535
 1298SOL    HW2 3904   3.533   1.591   1.671
 1299SOL     OW 3905   2.973   1.195   1.100
 1299SOL    HW1 3906   2.933   1.239   1.181
 1299SOL    HW2 3907   2.932   1.232   1.017
 1300SOL     OW 3908   3.500   1.099   1.079
 1300SOL    HW1 3909   3.505   1.180   1.138
 1300SOL    HW2 3910   3.414   1.101   1.028
 1301SOL     OW 3911   2.777   0.089   1.402
 1301SOL    HW1 3912   2.802   0.069   1.307
 1301SOL    HW2 3913   2.849   0.145   1.444
 1302SOL     OW 3914   2.842   1.116   1.719
 1302SOL    HW1 3915   2.743   1.122   1.729
 1302SOL    HW2 3916   2.865   1.036   1.663
 1303SOL     OW 3917   2.567   1.050   0.368
 1303SOL    HW1 3918   2.553   1.057   0.467
 1303SOL    HW2 3919   2.651   0.999   0.350
 1304SOL     OW 3920   2.272   0.813   1.251
 1304SOL    HW1 3921   2.358   0.825   1.301
 1304SOL    HW2 3922   2.230   0.726   1.278
 1305SOL     OW 3923   3.136   0.386   1.262
 1305SOL    HW1 3924   3.157   0.460   1.326
 1305SOL    HW2 3925   3.047   0.403   1.219
 1306SOL     OW 3926   1.926   1.564   1.331
 1306SOL    HW1 3927   1.880   1.646   1.297
 1306SOL    HW2 3928   2.024   1.583   1.340
 1307SOL     OW 3929   2.229   1.100   0.501
 1307SOL    HW1 3930   2.222   1.183   0.445
 1307SOL    HW2 3931   2.233   1.020   0.441
 1308SOL     OW 3932   2.428   0.537   0.865
 1308SOL    HW1 3933   2.440   0.603   0.791
 1308SOL    HW2 3934   2.474   0.571   0.948
 1309SOL     OW 3935   3.114   1.348   0.388
 1309SOL    HW1 3936   3.164   1.425   0.428
 1309SOL    HW2 3937   3.019   1.350   0.420
 1310SOL     OW 3938   3.134   1.445   1.142
 1310SOL    HW1 3939   3.181   1.458   1.229
 1310SOL    HW2 3940   3.068   1.371   1.151
 1311SOL     OW 3941   3.444   0.639   0.472
 1311SOL    HW1 3942   3.413   0.700   0.545
 1311SOL    HW2 3943   3.494   0.691   0.403
 1312SOL     OW 3944   2.216   1.510   1.329
 1312SOL    HW1 3945   2.195   1.466   1.242
 1312SOL    HW2 3946   2.313   1.536   1.332
 1313SOL     OW 3947   2.264   0.751   1.598
 1313SOL    HW1 3948   2.332   0.806   1.551
 1313SOL    HW2 3949   2.304   0.663   1.625
 1314SOL     OW 3950   3.449   0.779   1.670
 1314SOL    HW1 3951   3.357   0.817   1.665
 1314SOL    HW2 3952   3.509   0.826   1.605
 1315SOL     OW 3953   2.875   0.105   1.770
 1315SOL    HW1 3954   2.881   0.190   1.718
 1315SOL    HW2 3955   2.907   0.029   1.713
 1316SOL     OW 3956   2.366   0.050   1.740
 1316SOL    HW1 3957   2.324  -0.007   1.670
 1316SOL    HW2 3958   2.300   0.119   1.772
 1317SOL     OW 3959   2.435   0.870   1.029
 1317SOL    HW1 3960   2.479   0.959   1.020
 1317SOL    HW2 3961   2.372   0.870   1.106
 1318SOL     OW 3962   3.222   0.862   1.045
 1318SOL    HW1 3963   3.147   0.862   0.979
 1318SOL    HW2 3964   3.259   0.770   1.054
 1319SOL     OW 3965   3.071   0.525   0.275
 1319SOL    HW1 3966   3.084   0.441   0.329
 1319SOL    HW2 3967   3.042   0.599   0.335
 1320SOL     OW 3968   2.169   0.213   1.231
 1320SOL    HW1 3969   2.146   0.250   1.321
 1320SOL    HW2 3970   2.139   0.118   1.225
 1321SOL     OW 3971   1.899   1.310   1.282
 1321SOL    HW1 3972   1.952   1.261   1.350
 1321SOL    HW2 3973   1.921   1.408   1.287
 1322SOL     OW 3974   2.594   0.634   1.064
 1322SOL    HW1 3975   2.653   0.608   0.988
 1322SOL    HW2 3976   2.566   0.730   1.053
 1323SOL     OW 3977   3.590   0.935   1.854
 1323SOL    HW1 3978   3.544   0.928   1.765
 1323SOL    HW2 3979   3.528   0.979   1.920
 1324SOL     OW 3980   2.169   0.063   0.618
 1324SOL    HW1 3981   2.158   0.157   0.651
 1324SOL    HW2 3982   2.164   0.000   0.695
 1325SOL     OW 3983   3.484   0.367   0.374
 1325SOL    HW1 3984   3.486   0.291   0.438
 1325SOL    HW2 3985   3.436   0.444   0.414
 1326SOL     OW 3986   2.885   0.766   0.966
 1326SOL    HW1 3987   2.900   0.787   1.062
 1326SOL    HW2 3988   2.855   0.671   0.957
 1327SOL     OW 3989   2.842   1.573   1.700
 1327SOL    HW1 3990   2.822   1.617   1.612
 1327SOL    HW2 3991   2.881   1.482   1.684
 1328SOL     OW 3992   3.721   1.518   1.605
 1328SOL    HW1 3993   3.735   1.545   1.510
 1328SOL    HW2 3994   3.804   1.540   1.658
 1329SOL     OW 3995   2.212   0.898   1.804
 1329SOL    HW1 3996   2.288   0.942   1.852
 1329SOL    HW2 3997   2.247   0.851   1.722
 1330SOL     OW 3998   3.402   0.274   0.125
 1330SOL    HW1 3999   3.341   0.199   0.148
 1330SOL    HW2 4000   3.424   0.326   0.208
 1331SOL     OW 4001   3.165   0.838   0.042
 1331SOL    HW1 4002   3.199   0.745   0.057
 1331SOL    HW2 4003   3.183   0.865  -0.053
 1332SOL     OW 4004   2.930   1.333   0.849
 1332SOL    HW1 4005   2.937   1.249   0.794
 1332SOL    HW2 4006   2.992   1.402   0.813
 1333SOL     OW 4007   2.181   0.810   0.949
 1333SOL    HW1 4008   2.274   0.846   0.954
 1333SOL    HW2 4009   2.175   0.725   1.001
 1334SOL     OW 4010   2.201   0.509   1.006
 1334SOL    HW1 4011   2.149   0.426   0.989
 1334SOL    HW2 4012   2.278   0.514   0.942
 1335SOL     OW 4013   3.000   0.380   1.678
 1335SOL    HW1 4014   2.955   0.443   1.742
 1335SOL    HW2 4015   3.093   0.411   1.661
 1336SOL     OW 4016   3.022   0.207   1.477
 1336SOL    HW1 4017   3.022   0.271   1.554
 1336SOL    HW2 4018   3.050   0.255   1.394
 1337SOL     OW 4019   1.870   1.326   0.200
 1337SOL    HW1 4020   1.777   1.347   0.169
 1337SOL    HW2 4021   1.880   1.227   0.213
 1338SOL     OW 4022   1.950   1.801   0.927
 1338SOL    HW1 4023   1.908   1.715   0.900
 1338SOL    HW2 4024   2.044   1.804   0.893
 1339SOL     OW 4025   2.366   1.568   0.910
 1339SOL    HW1 4026   2.432   1.642   0.919
 1339SOL    HW2 4027   2.410   1.489   0.868
 1340SOL     OW 4028   2.864   0.796   1.238
 1340SOL    HW1 4029   2.905   0.764   1.324
 1340SOL    HW2 4030   2.768   0.769   1.235
 1341SOL     OW 4031   1.902   0.544   1.114
 1341SOL    HW1 4032   1.987   0.511   1.073
 1341SOL    HW2 4033   1.915   0.559   1.212
 1342SOL     OW 4034   2.051   0.520   1.722
 1342SOL    HW1 4035   2.110   0.480   1.652
 1342SOL    HW2 4036   1.993   0.591   1.681
 1343SOL     OW 4037   3.231   0.950   1.660
 1343SOL    HW1 4038   3.270   1.039   1.680
 1343SOL    HW2 4039   3.241   0.930   1.563
 1344SOL     OW 4040   2.677   0.572   0.325
 1344SOL    HW1 4041   2.684   0.483   0.279
 1344SOL    HW2 4042   2.583   0.606   0.317
 1345SOL     OW 4043   3.519   0.604   1.206
 1345SOL    HW1 4044   3.481   0.535   1.268
 1345SOL    HW2 4045   3.601   0.568   1.162
 1346SOL     OW 4046   2.114   1.564   1.744
 1346SOL    HW1 4047   2.084   1.621   1.820
 1346SOL    HW2 4048   2.107   1.467   1.770
 1347SOL     OW 4049   2.533   0.464   1.269
 1347SOL    HW1 4050   2.499   0.375   1.239
 1347SOL    HW2 4051   2.559   0.518   1.189
 1348SOL     OW 4052   2.792   1.678   1.465
 1348SOL    HW1 4053   2.768   1.660   1.370
 1348SOL    HW2 4054   2.822   1.772   1.475
 1349SOL     OW 4055   2.335   0.500   0.191
 1349SOL    HW1 4056   2.396   0.580   0.195
 1349SOL    HW2 4057   2.240   0.531   0.198
 1350SOL     OW 4058   2.021   1.137   1.466
 1350SOL    HW1 4059   2.043   1.076   1.542
 1350SOL    HW2 4060   2.031   1.088   1.380
 1351SOL     OW 4061   3.209   1.059   1.234
 1351SOL    HW1 4062   3.233   0.996   1.160
 1351SOL    HW2 4063   3.119   1.099   1.216
 1352SOL     OW 4064   3.164   0.855   0.309
 1352SOL    HW1 4065   3.078   0.824   0.351
 1352SOL    HW2 4066   3.160   0.841   0.210
 1353SOL     OW 4067   3.621   1.747   1.154
 1353SOL    HW1 4068   3.682   1.777   1.081
 1353SOL    HW2 4069   3.583   1.658   1.132
 1354SOL     OW 4070   3.114   1.731   1.128
 1354SOL    HW1 4071   3.198   1.736   1.074
 1354SOL    HW2 4072   3.091   1.635   1.146
 1355SOL     OW 4073   1.945   1.258   1.022
 1355SOL    HW1 4074   1.940   1.257   1.122
 1355SOL    HW2 4075   1.862   1.217   0.984
 1356SOL     OW 4076   2.550   1.662   1.716
 1356SOL    HW1 4077   2.494   1.743   1.725
 1356SOL    HW2 4078   2.602   1.666   1.630
 1357SOL     OW 4079   2.765   0.086   0.133
 1357SOL    HW1 4080   2.816   0.087   0.047
 1357SOL    HW2 4081   2.821   0.044   0.204
 1358SOL     OW 4082   3.588   0.135   0.523
 1358SOL    HW1 4083   3.661   0.118   0.456
 1358SOL    HW2 4084   3.557   0.048   0.561
 1359SOL     OW 4085   3.250   1.573   0.477
 1359SOL    HW1 4086   3.317   1.585   0.403
 1359SOL    HW2 4087   3.210   1.662   0.500
 1360SOL     OW 4088   1.992   1.794   1.851
 1360SOL    HW1 4089   1.951   1.720   1.904
 1360SOL    HW2 4090   2.056   1.845   1.909
 1361SOL     OW 4091   3.142   0.927   0.672
 1361SOL    HW1 4092   3.202   0.846   0.674
 1361SOL    HW2 4093   3.182   0.996   0.612
 1362SOL     OW 4094   2.692   1.273   1.422
 1362SOL    HW1 4095   2.687   1.306   1.517
 1362SOL    HW2 4096   2.606   1.292   1.376
 1363SOL     OW 4097   2.534   1.616   0.154
 1363SOL    HW1 4098   2.543   1.626   0.055
 1363SOL    HW2 4099   2.494   1.527   0.175
 1364SOL     OW 4100   3.512   1.720   1.394
 1364SOL    HW1 4101   3.565   1.730   1.310
 1364SOL    HW2 4102   3.485   1.810   1.428
 1365SOL     OW 4103   3.703   0.175   0.963
 1365SOL    HW1 4104   3.742   0.090   0.927
 1365SOL    HW2 4105   3.605   0.177   0.944
 1366SOL     OW 4106   2.125   0.326   0.720
 1366SOL    HW1 4107   2.046   0.377   0.686
 1366SOL    HW2 4108   2.116   0.311   0.818
 1367SOL     OW 4109   3.056   1.612   0.031
 1367SOL    HW1 4110   3.062   1.519   0.068
 1367SOL    HW2 4111   2.997   1.612  -0.049
 1368SOL     OW 4112   2.684   1.002   1.372
 1368SOL    HW1 4113   2.724   1.001   1.280
 1368SOL    HW2 4114   2.694   1.094   1.412
 1369SOL     OW 4115   2.778   0.910   0.291
 1369SOL    HW1 4116   2.841   0.948   0.223
 1369SOL    HW2 4117   2.818   0.827   0.330
 1370SOL     OW 4118   3.366   1.607   0.044
 1370SOL    HW1 4119   3.274   1.644   0.051
 1370SOL    HW2 4120   3.404   1.627  -0.046
 1371SOL     OW 4121   2.234   1.288   1.490
 1371SOL    HW1 4122   2.221   1.381   1.456
 1371SOL    HW2 4123   2.150   1.236   1.477
 1372SOL     OW 4124   3.476   1.292   1.289
 1372SOL    HW1 4125   3.536   1.295   1.369
 1372SOL    HW2 4126   3.401   1.356   1.302
 1373SOL     OW 4127   2.901   1.098   0.696
 1373SOL    HW1 4128   2.831   1.051   0.750
 1373SOL    HW2 4129   2.960   1.030   0.653
 1374SOL     OW 4130   2.876   0.236   0.971
 1374SOL    HW1 4131   2.868   0.200   0.878
 1374SOL    HW2 4132   2.874   0.160   1.036
 1375SOL     OW 4133   2.452   1.487   0.491
 1375SOL    HW1 4134   2.494   1.429   0.421
 1375SOL    HW2 4135   2.408   1.566   0.447
 1376SOL     OW 4136   3.571   0.385   1.381
 1376SOL    HW1 4137   3.644   0.454   1.385
 1376SOL    HW2 4138   3.599   0.310   1.322
 1377SOL     OW 4139   2.117   1.348   0.290
 1377SOL    HW1 4140   2.021   1.349   0.263
 1377SOL    HW2 4141   2.129   1.401   0.374
 1378SOL     OW 4142   1.967   1.013   1.726
 1378SOL    HW1 4143   1.890   0.980   1.780
 1378SOL    HW2 4144   2.052   0.983   1.768
 1379SOL     OW 4145   2.534   0.203   1.489
 1379SOL    HW1 4146   2.624   0.187   1.449
 1379SOL    HW2 4147   2.542   0.208   1.588
 1380SOL     OW 4148   1.937   0.345   0.033
 1380SOL    HW1 4149   1.845   0.317   0.004
 1380SOL    HW2 4150   1.968   0.422  -0.023
 1381SOL     OW 4151   3.302   0.856   1.398
 1381SOL    HW1 4152   3.245   0.908   1.335
 1381SOL    HW2 4153   3.398   0.868   1.374
 1382SOL     OW 4154   3.045   1.335   0.119
 1382SOL    HW1 4155   2.946   1.324   0.121
 1382SOL    HW2 4156   3.079   1.350   0.212
 1383SOL     OW 4157   2.475   0.842   1.431
 1383SOL    HW1 4158   2.531   0.923   1.414
 1383SOL    HW2 4159   2.534   0.762   1.434
 1384SOL     OW 4160   3.355   1.767   0.959
 1384SOL    HW1 4161   3.388   1.831   0.890
 1384SOL    HW2 4162   3.421   1.761   1.034
 1385SOL     OW 4163   2.578   0.565   1.708
 1385SOL    HW1 4164   2.597   0.630   1.782
 1385SOL    HW2 4165   2.638   0.485   1.717
 1386SOL     OW 4166   3.312   1.220   1.633
 1386SOL    HW1 4167   3.303   1.210   1.732
 1386SOL    HW2 4168   3.408   1.213   1.607
 1387SOL     OW 4169   2.252   1.741   1.560
 1387SOL    HW1 4170   2.161   1.782   1.558
 1387SOL    HW2 4171   2.245   1.647   1.592
 1388SOL     OW 4172   3.536   0.883   1.254
 1388SOL    HW1 4173   3.509   0.794   1.217
 1388SOL    HW2 4174   3.537   0.951   1.181
 1389SOL     OW 4175   3.087   0.325   0.449
 1389SOL    HW1 4176   3.152   0.251   0.438
 1389SOL    HW2 4177   3.107   0.375   0.533
 1390SOL     OW 4178   2.456   0.745   0.652
 1390SOL    HW1 4179   2.506   0.830   0.633
 1390SOL    HW2 4180   2.368   0.747   0.604
 1391SOL     OW 4181   3.639   0.342   1.642
 1391SOL    HW1 4182   3.622   0.373   1.548
 1391SOL    HW2 4183   3.555   0.305   1.680
 1392SOL     OW 4184   3.592   0.934   1.517
 1392SOL    HW1 4185   3.630   1.025   1.532
 1392SOL    HW2 4186   3.584   0.917   1.418
 1393SOL     OW 4187   2.721   1.374   0.016
 1393SOL    HW1 4188   2.675   1.389   0.104
 1393SOL    HW2 4189   2.765   1.459  -0.014
 1394SOL     OW 4190   2.523   1.790   0.953
 1394SOL    HW1 4191   2.477   1.878   0.940
 1394SOL    HW2 4192   2.622   1.802   0.946
 1395SOL     OW 4193   2.721   0.956   0.861
 1395SOL    HW1 4194   2.775   0.887   0.909
 1395SOL    HW2 4195   2.689   1.025   0.927
 1396SOL     OW 4196   2.945   0.984   0.087
 1396SOL    HW1 4197   2.922   1.037   0.005
 1396SOL    HW2 4198   3.026   0.928   0.068
 1397SOL     OW 4199   3.723   1.569   0.851
 1397SOL    HW1 4200   3.652   1.557   0.781
 1397SOL    HW2 4201   3.724   1.490   0.911
 1398SOL     OW 4202   2.083   1.314   1.844
 1398SOL    HW1 4203   2.018   1.241   1.823
 1398SOL    HW2 4204   2.087   1.328   1.942
 1399SOL     OW 4205   1.941   1.240   0.653
 1399SOL    HW1 4206   1.940   1.193   0.741
 1399SOL    HW2 4207   2.023   1.212   0.602
 1400SOL     OW 4208   2.534   1.391   1.624
 1400SOL    HW1 4209   2.456   1.341   1.662
 1400SOL    HW2 4210   2.531   1.486   1.655
 1401SOL     OW 4211   3.686   0.192   1.227
 1401SOL    HW1 4212   3.682   0.102   1.271
 1401SOL    HW2 4213   3.689   0.181   1.128
 1402SOL     OW 4214   2.290   0.424   0.520
 1402SOL    HW1 4215   2.320   0.352   0.458
 1402SOL    HW2 4216   2.251   0.384   0.603
 1403SOL     OW 4217   3.567   1.487   1.104
 1403SOL    HW1 4218   3.474   1.462   1.077
 1403SOL    HW2 4219   3.593   1.437   1.186
 1404SOL     OW 4220   2.179   0.547   1.280
 1404SOL    HW1 4221   2.217   0.488   1.352
 1404SOL    HW2 4222   2.219   0.521   1.192
 1405SOL     OW 4223   2.674   1.586   0.687
 1405SOL    HW1 4224   2.706   1.596   0.593
 1405SOL    HW2 4225   2.595   1.524   0.689
 1406SOL     OW 4226   3.286   0.214   1.112
 1406SOL    HW1 4227   3.338   0.149   1.167
 1406SOL    HW2 4228   3.237   0.277   1.173
 1407SOL     OW 4229   2.863   0.034   1.154
 1407SOL    HW1 4230   2.800  -0.038   1.123
 1407SOL    HW2 4231   2.956  -0.002   1.154
 1408SOL     OW 4232   2.632   1.330   0.301
 1408SOL    HW1 4233   2.586   1.243   0.318
 1408SOL    HW2 4234   2.723   1.327   0.342
 1409SOL     OW 4235   2.480   1.567   1.284
 1409SOL    HW1 4236   2.475   1.649   1.341
 1409SOL    HW2 4237   2.569   1.564   1.239
 1410SOL     OW 4238   3.214   0.052   0.168
 1410SOL    HW1 4239   3.249   0.011   0.084
 1410SOL    HW2 4240   3.124   0.014   0.188
 1411SOL     OW 4241   3.162   0.453   0.691
 1411SOL    HW1 4242   3.103   0.533   0.695
 1411SOL    HW2 4243   3.177   0.418   0.784
 1412SOL     OW 4244   3.455   0.221   0.882
 1412SOL    HW1 4245   3.371   0.220   0.936
 1412SOL    HW2 4246   3.457   0.304   0.826
 1413SOL     OW 4247   1.901   1.077   0.300
 1413SOL    HW1 4248   2.000   1.066   0.291
 1413SOL    HW2 4249   1.861   0.991   0.332
 1414SOL     OW 4250   2.737   1.646   0.337
 1414SOL    HW1 4251   2.660   1.611   0.283
 1414SOL    HW2 4252   2.705   1.717   0.399
 1415SOL     OW 4253   2.092   0.628   1.975
 1415SOL    HW1 4254   1.999   0.626   2.012
 1415SOL    HW2 4255   2.093   0.589   1.883
 1416SOL     OW 4256   2.087   0.275   2.858
 1416SOL    HW1 4257   2.122   0.258   2.950
 1416SOL    HW2 4258   1.999   0.230   2.846
 1417SOL     OW 4259   1.881   0.368   2.509
 1417SOL    HW1 4260   1.799   0.411   2.548
 1417SOL    HW2 4261   1.853   0.295   2.446
 1418SOL     OW 4262   2.431   1.275   3.027
 1418SOL    HW1 4263   2.338   1.268   2.990
 1418SOL    HW2 4264   2.442   1.364   3.071
 1419SOL     OW 4265   3.417   1.511   2.565
 1419SOL    HW1 4266   3.360   1.495   2.646
 1419SOL    HW2 4267   3.358   1.521   2.485
 1420SOL     OW 4268   2.997   0.703   2.579
 1420SOL    HW1 4269   3.054   0.781   2.554
 1420SOL    HW2 4270   2.937   0.729   2.655
 1421SOL     OW 4271   3.617   0.607   2.093
 1421SOL    HW1 4272   3.605   0.594   1.994
 1421SOL    HW2 4273   3.587   0.526   2.142
 1422SOL     OW 4274   2.630   1.144   2.885
 1422SOL    HW1 4275   2.552   1.161   2.945
 1422SOL    HW2 4276   2.664   1.231   2.849
 1423SOL     OW 4277   2.712   0.798   3.685
 1423SOL    HW1 4278   2.708   0.874   3.750
 1423SOL    HW2 4279   2.734   0.834   3.594
 1424SOL     OW 4280   2.547   1.012   2.527
 1424SOL    HW1 4281   2.616   0.996   2.597
 1424SOL    HW2 4282   2.474   1.069   2.565
 1425SOL     OW 4283   2.548   1.161   3.665
 1425SOL    HW1 4284   2.608   1.240   3.679
 1425SOL    HW2 4285   2.462   1.192   3.624
 1426SOL     OW 4286   2.197   1.435   2.923
 1426SOL    HW1 4287   2.119   1.404   2.870
 1426SOL    HW2 4288   2.255   1.493   2.866
 1427SOL     OW 4289   3.322   1.505   3.201
 1427SOL    HW1 4290   3.346   1.599   3.227
 1427SOL    HW2 4291   3.306   1.451   3.283
 1428SOL     OW 4292   2.300   0.392   3.361
 1428SOL    HW1 4293   2.382   0.336   3.370
 1428SOL    HW2 4294   2.219   0.334   3.365
 1429SOL     OW 4295   3.465   0.447   2.599
 1429SOL    HW1 4296   3.391   0.493   2.549
 1429SOL    HW2 4297   3.516   0.515   2.652
 1430SOL     OW 4298   2.093   1.713   2.345
 1430SOL    HW1 4299   2.127   1.790   2.399
 1430SOL    HW2 4300   2.137   1.713   2.255
 1431SOL     OW 4301   2.989   1.341   3.552
 1431SOL    HW1 4302   3.036   1.341   3.640
 1431SOL    HW2 4303   2.941   1.254   3.541
 1432SOL     OW 4304   2.092   1.434   2.400
 1432SOL    HW1 4305   2.066   1.530   2.400
 1432SOL    HW2 4306   2.021   1.380   2.445
 1433SOL     OW 4307   2.102   1.091   2.748
 1433SOL    HW1 4308   2.116   1.007   2.800
 1433SOL    HW2 4309   2.047   1.155   2.803
 1434SOL     OW 4310   2.482   1.786   3.301
 1434SOL    HW1 4311   2.390   1.769   3.336
 1434SOL    HW2 4312   2.510   1.878   3.327
 1435SOL     OW 4313   2.468   0.964   1.985
 1435SOL    HW1 4314   2.475   1.048   1.931
 1435SOL    HW2 4315   2.514   0.977   2.073
 1436SOL     OW 4316   3.456   0.114   3.342
 1436SOL    HW1 4317   3.438   0.181   3.270
 1436SOL    HW2 4318   3.453   0.160   3.431
 1437SOL     OW 4319   1.984   0.643   2.425
 1437SOL    HW1 4320   1.939   0.555   2.442
 1437SOL    HW2 4321   1.983   0.697   2.509
 1438SOL     OW 4322   3.704   1.767   2.221
 1438SOL    HW1 4323   3.758   1.738   2.301
 1438SOL    HW2 4324   3.734   1.857   2.192
 1439SOL     OW 4325   1.889   1.596   1.979
 1439SOL    HW1 4326   1.870   1.500   2.000
 1439SOL    HW2 4327   1.856   1.654   2.054
 1440SOL     OW 4328   3.551   0.922   2.474
 1440SOL    HW1 4329   3.646   0.893   2.482
 1440SOL    HW2 4330   3.543   0.987   2.399
 1441SOL     OW 4331   3.503   1.108   2.294
 1441SOL    HW1 4332   3.589   1.110   2.242
 1441SOL    HW2 4333   3.517   1.155   2.382
 1442SOL     OW 4334   1.975   0.737   3.459
 1442SOL    HW1 4335   2.063   0.724   3.504
 1442SOL    HW2 4336   1.962   0.834   3.437
 1443SOL     OW 4337   2.475   1.365   2.588
 1443SOL    HW1 4338   2.426   1.278   2.597
 1443SOL    HW2 4339   2.452   1.408   2.501
 1444SOL     OW 4340   3.155   1.228   3.285
 1444SOL    HW1 4341   3.192   1.155   3.227
 1444SOL    HW2 4342   3.207   1.233   3.370
 1445SOL     OW 4343   2.671   0.004   2.364
 1445SOL    HW1 4344   2.711   0.095   2.355
 1445SOL    HW2 4345   2.571   0.012   2.370
 1446SOL     OW 4346   2.059   0.976   3.126
 1446SOL    HW1 4347   2.148   0.931   3.112
 1446SOL    HW2 4348   1.986   0.911   3.107
 1447SOL     OW 4349   3.387   0.999   2.052
 1447SOL    HW1 4350   3.324   0.923   2.065
 1447SOL    HW2 4351   3.435   1.017   2.138
 1448SOL     OW 4352   3.049   1.792   3.478
 1448SOL    HW1 4353   3.073   1.852   3.402
 1448SOL    HW2 4354   3.056   1.697   3.448
 1449SOL     OW 4355   2.179   0.251   3.663
 1449SOL    HW1 4356   2.250   0.322   3.669
 1449SOL    HW2 4357   2.091   0.290   3.691
 1450SOL     OW 4358   3.328   1.417   2.815
 1450SOL    HW1 4359   3.269   1.423   2.895
 1450SOL    HW2 4360   3.313   1.329   2.769
 1451SOL     OW 4361   3.529   1.714   2.434
 1451SOL    HW1 4362   3.488   1.691   2.346
 1451SOL    HW2 4363   3.511   1.640   2.499
 1452SOL     OW 4364   2.460   0.729   2.132
 1452SOL    HW1 4365   2.484   0.798   2.064
 1452SOL    HW2 4366   2.382   0.762   2.186
 1453SOL     OW 4367   3.143   0.345   2.806
 1453SOL    HW1 4368   3.057   0.295   2.793
 1453SOL    HW2 4369   3.205   0.291   2.862
 1454SOL     OW 4370   3.438   1.662   2.169
 1454SOL    HW1 4371   3.527   1.708   2.172
 1454SOL    HW2 4372   3.417   1.638   2.074
 1455SOL     OW 4373   2.669   0.605   3.327
 1455SOL    HW1 4374   2.622   0.602   3.416
 1455SOL    HW2 4375   2.618   0.550   3.261
 1456SOL     OW 4376   3.256   0.469   3.536
 1456SOL    HW1 4377   3.236   0.512   3.624
 1456SOL    HW2 4378   3.334   0.407   3.545
 1457SOL     OW 4379   2.835   0.890   3.434
 1457SOL    HW1 4380   2.881   0.806   3.405
 1457SOL    HW2 4381   2.779   0.924   3.359
 1458SOL     OW 4382   2.853   0.410   3.104
 1458SOL    HW1 4383   2.776   0.444   3.158
 1458SOL    HW2 4384   2.819   0.359   3.025
 1459SOL     OW 4385   2.903   0.701   2.291
 1459SOL    HW1 4386   2.929   0.697   2.387
 1459SOL    HW2 4387   2.818   0.650   2.277
 1460SOL     OW 4388   1.938   0.811   2.651
 1460SOL    HW1 4389   2.037   0.799   2.660
 1460SOL    HW2 4390   1.914   0.906   2.672
 1461SOL     OW 4391   1.992   1.821   3.433
 1461SOL    HW1 4392   1.982   1.806   3.532
 1461SOL    HW2 4393   1.906   1.857   3.397
 1462SOL     OW 4394   2.727   0.348   2.057
 1462SOL    HW1 4395   2.786   0.411   2.008
 1462SOL    HW2 4396   2.746   0.254   2.028
 1463SOL     OW 4397   3.581   0.585   3.693
 1463SOL    HW1 4398   3.555   0.674   3.657
 1463SOL    HW2 4399   3.579   0.517   3.620
 1464SOL     OW 4400   3.224   1.144   2.407
 1464SOL    HW1 4401   3.307   1.115   2.359
 1464SOL    HW2 4402   3.175   1.211   2.351
 1465SOL     OW 4403   2.412   0.196   2.747
 1465SOL    HW1 4404   2.407   0.191   2.847
 1465SOL    HW2 4405   2.414   0.292   2.718
 1466SOL     OW 4406   2.870   1.456   2.339
 1466SOL    HW1 4407   2.824   1.528   2.287
 1466SOL    HW2 4408   2.866   1.476   2.437
 1467SOL     OW 4409   2.213   1.801   2.715
 1467SOL    HW1 4410   2.263   1.715   2.721
 1467SOL    HW2 4411   2.278   1.878   2.712
 1468SOL     OW 4412   3.657   1.066   2.735
 1468SOL    HW1 4413   3.595   1.051   2.659
 1468SOL    HW2 4414   3.605   1.077   2.820
 1469SOL     OW 4415   3.089   1.550   3.368
 1469SOL    HW1 4416   3.095   1.473   3.432
 1469SOL    HW2 4417   3.037   1.524   3.288
 1470SOL     OW 4418   2.183   0.943   2.104
 1470SOL    HW1 4419   2.265   0.982   2.062
 1470SOL    HW2 4420   2.156   0.861   2.055
 1471SOL     OW 4421   3.320   0.735   2.590
 1471SOL    HW1 4422   3.315   0.670   2.665
 1471SOL    HW2 4423   3.400   0.794   2.603
 1472SOL     OW 4424   2.323   1.266   3.589
 1472SOL    HW1 4425   2.273   1.267   3.503
 1472SOL    HW2 4426   2.260   1.248   3.665
 1473SOL     OW 4427   2.973   1.776   2.099
 1473SOL    HW1 4428   2.913   1.714   2.149
 1473SOL    HW2 4429   3.004   1.732   2.014
 1474SOL     OW 4430   2.064   0.285   3.360
 1474SOL    HW1 4431   1.984   0.345   3.347
 1474SOL    HW2 4432   2.054   0.236   3.446
 1475SOL     OW 4433   3.494   1.377   1.943
 1475SOL    HW1 4434   3.462   1.471   1.933
 1475SOL    HW2 4435   3.418   1.314   1.931
 1476SOL     OW 4436   2.326   1.743   2.185
 1476SOL    HW1 4437   2.359   1.782   2.271
 1476SOL    HW2 4438   2.402   1.736   2.120
 1477SOL     OW 4439   3.262   0.107   2.288
 1477SOL    HW1 4440   3.238   0.070   2.198
 1477SOL    HW2 4441   3.361   0.123   2.292
 1478SOL     OW 4442   2.111   1.785   3.103
 1478SOL    HW1 4443   2.168   1.720   3.153
 1478SOL    HW2 4444   2.095   1.752   3.010
 1479SOL     OW 4445   2.802   1.698   2.766
 1479SOL    HW1 4446   2.882   1.641   2.787
 1479SOL    HW2 4447   2.753   1.658   2.689
 1480SOL     OW 4448   2.244   0.700   2.342
 1480SOL    HW1 4449   2.289   0.610   2.339
 1480SOL    HW2 4450   2.150   0.689   2.375
 1481SOL     OW 4451   3.409   0.222   3.591
 1481SOL    HW1 4452   3.404   0.259   3.683
 1481SOL    HW2 4453   3.337   0.153   3.579
 1482SOL     OW 4454   2.476   0.122   1.979
 1482SOL    HW1 4455   2.574   0.100   1.986
 1482SOL    HW2 4456   2.445   0.105   1.886
 1483SOL     OW 4457   2.643   0.264   3.611
 1483SOL    HW1 4458   2.710   0.203   3.654
 1483SOL    HW2 4459   2.570   0.283   3.676
 1484SOL     OW 4460   2.750   1.514   3.057
 1484SOL    HW1 4461   2.727   1.489   2.963
 1484SOL    HW2 4462   2.811   1.445   3.096
 1485SOL     OW 4463   3.213   0.590   3.295
 1485SOL    HW1 4464   3.241   0.547   3.380
 1485SOL    HW2 4465   3.238   0.686   3.296
 1486SOL     OW 4466   2.665   1.402   2.786
 1486SOL    HW1 4467   2.755   1.416   2.744
 1486SOL    HW2 4468   2.594   1.404   2.715
 1487SOL     OW 4469   2.784   0.503   2.761
 1487SOL    HW1 4470   2.759   0.494   2.665
 1487SOL    HW2 4471   2.832   0.421   2.792
 1488SOL     OW 4472   2.401   0.064   2.374
 1488SOL    HW1 4473   2.320   0.065   2.432
 1488SOL    HW2 4474   2.404   0.147   2.319
 1489SOL     OW 4475   3.296   1.188   1.903
 1489SOL    HW1 4476   3.328   1.112   1.960
 1489SOL    HW2 4477   3.204   1.215   1.933
 1490SOL     OW 4478   2.159   0.035   2.033
 1490SOL    HW1 4479   2.208   0.119   2.012
 1490SOL    HW2 4480   2.221  -0.030   2.078
 1491SOL     OW 4481   2.797   0.236   2.342
 1491SOL    HW1 4482   2.749   0.277   2.264
 1491SOL    HW2 4483   2.896   0.234   2.323
 1492SOL     OW 4484   2.938   0.683   3.326
 1492SOL    HW1 4485   2.858   0.622   3.329
 1492SOL    HW2 4486   3.019   0.630   3.302
 1493SOL     OW 4487   3.089   1.570   2.655
 1493SOL    HW1 4488   3.110   1.644   2.590
 1493SOL    HW2 4489   3.157   1.570   2.728
 1494SOL     OW 4490   2.321   1.152   2.603
 1494SOL    HW1 4491   2.250   1.125   2.668
 1494SOL    HW2 4492   2.295   1.124   2.510
 1495SOL     OW 4493   3.133   1.797   2.453
 1495SOL    HW1 4494   3.177   1.861   2.389
 1495SOL    HW2 4495   3.083   1.849   2.523
 1496SOL     OW 4496   2.894   0.549   1.878
 1496SOL    HW1 4497   2.853   0.631   1.839
 1496SOL    HW2 4498   2.958   0.575   1.951
 1497SOL     OW 4499   1.940   0.556   3.248
 1497SOL    HW1 4500   2.032   0.555   3.207
 1497SOL    HW2 4501   1.934   0.630   3.315
 1498SOL     OW 4502   2.423   0.222   3.009
 1498SOL    HW1 4503   2.461   0.138   3.046
 1498SOL    HW2 4504   2.335   0.241   3.053
 1499SOL     OW 4505   2.728   0.454   2.504
 1499SOL    HW1 4506   2.696   0.526   2.442
 1499SOL    HW2 4507   2.752   0.373   2.451
 1500SOL     OW 4508   2.879   0.039   2.615
 1500SOL    HW1 4509   2.807   0.044   2.546
 1500SOL    HW2 4510   2.855  -0.030   2.684
 1501SOL     OW 4511   3.291   1.173   2.729
 1501SOL    HW1 4512   3.236   1.089   2.722
 1501SOL    HW2 4513   3.317   1.202   2.637
 1502SOL     OW 4514   3.328   0.590   2.854
 1502SOL    HW1 4515   3.298   0.495   2.861
 1502SOL    HW2 4516   3.401   0.606   2.920
 1503SOL     OW 4517   3.719   0.833   2.239
 1503SOL    HW1 4518   3.761   0.769   2.303
 1503SOL    HW2 4519   3.681   0.782   2.161
 1504SOL     OW 4520   2.350   1.385   2.036
 1504SOL    HW1 4521   2.263   1.370   2.083
 1504SOL    HW2 4522   2.333   1.411   1.941
 1505SOL     OW 4523   3.526   1.280   2.519
 1505SOL    HW1 4524   3.625   1.288   2.533
 1505SOL    HW2 4525   3.481   1.364   2.550
 1506SOL     OW 4526   3.252   0.575   1.940
 1506SOL    HW1 4527   3.198   0.554   2.021
 1506SOL    HW2 4528   3.343   0.534   1.949
 1507SOL     OW 4529   2.389   0.256   2.190
 1507SOL    HW1 4530   2.416   0.197   2.115
 1507SOL    HW2 4531   2.389   0.351   2.159
 1508SOL     OW 4532   3.616   1.223   3.450
 1508SOL    HW1 4533   3.707   1.184   3.437
 1508SOL    HW2 4534   3.624   1.319   3.474
 1509SOL     OW 4535   2.926   1.347   3.202
 1509SOL    HW1 4536   2.846   1.324   3.257
 1509SOL    HW2 4537   3.009   1.321   3.251
 1510SOL     OW 4538   3.454   1.629   3.487
 1510SOL    HW1 4539   3.481   1.663   3.397
 1510SOL    HW2 4540   3.533   1.591   3.533
 1511SOL     OW 4541   2.973   1.195   2.962
 1511SOL    HW1 4542   2.933   1.239   3.043
 1511SOL    HW2 4543   2.932   1.232   2.879
 1512SOL     OW 4544   3.500   1.099   2.941
 1512SOL    HW1 4545   3.505   1.180   3.000
 1512SOL    HW2 4546   3.414   1.101   2.890
 1513SOL     OW 4547   2.777   0.089   3.264
 1513SOL    HW1 4548   2.802   0.069   3.169
 1513SOL    HW2 4549   2.849   0.145   3.306
 1514SOL     OW 4550   2.842   1.116   3.581
 1514SOL    HW1 4551   2.743   1.122   3.591
 1514SOL    HW2 4552   2.865   1.036   3.525
 1515SOL     OW 4553   2.567   1.050   2.230
 1515SOL    HW1 4554   2.553   1.057   2.329
 1515SOL    HW2 4555   2.651   0.999   2.212
 1516SOL     OW 4556   2.272   0.813   3.113
 1516SOL    HW1 4557   2.358   0.825   3.163
 1516SOL    HW2 4558   2.230   0.726   3.140
 1517SOL     OW 4559   3.136   0.386   3.124
 1517SOL    HW1 4560   3.157   0.460   3.188
 1517SOL    HW2 4561   3.047   0.403   3.081
 1518SOL     OW 4562   1.926   1.564   3.193
 1518SOL    HW1 4563   1.880   1.646   3.159
 1518SOL    HW2 4564   2.024   1.583   3.202
 1519SOL     OW 4565   2.229   1.100   2.363
 1519SOL    HW1 4566   2.222   1.183   2.307
 1519SOL    HW2 4567   2.233   1.020   2.303
 1520SOL     OW 4568   2.428   0.537   2.727
 1520SOL    HW1 4569   2.440   0.603   2.653
 1520SOL    HW2 4570   2.474   0.571   2.810
 1521SOL     OW 4571   3.114   1.348   2.250
 1521SOL    HW1 4572   3.164   1.425   2.290
 1521SOL    HW2 4573   3.019   1.350   2.282
 1522SOL     OW 4574   3.134   1.445   3.004
 1522SOL    HW1 4575   3.181   1.458   3.091
 1522SOL    HW2 4576   3.068   1.371   3.013
 1523SOL     OW 4577   3.444   0.639   2.334
 1523SOL    HW1 4578   3.413   0.700   2.407
 1523SOL    HW2 4579   3.494   0.691   2.265
 1524SOL     OW 4580   2.216   1.510   3.191
 1524SOL    HW1 4581   2.195   1.466   3.104
 1524SOL    HW2 4582   2.313   1.536   3.194
 1525SOL     OW 4583   2.264   0.751   3.460
 1525SOL    HW1 4584   2.332   0.806   3.413
 1525SOL    HW2 4585   2.304   0.663   3.487
 1526SOL     OW 4586   3.449   0.779   3.532
 1526SOL    HW1 4587   3.357   0.817   3.527
 1526SOL    HW2 4588   3.509   0.826   3.467
 1527SOL     OW 4589   2.875   0.105   3.632
 1527SOL    HW1 4590   2.881   0.190   3.580
 1527SOL    HW2 4591   2.907   0.029   3.575
 1528SOL     OW 4592   2.366   0.050   3.602
 1528SOL    HW1 4593   2.324  -0.007   3.532
 1528SOL    HW2 4594   2.300   0.119   3.634
 1529SOL     OW 4595   2.435   0.870   2.891
 1529SOL    HW1 4596   2.479   0.959   2.882
 1529SOL    HW2 4597   2.372   0.870   2.968
 1530SOL     OW 4598   3.222   0.862   2.907
 1530SOL    HW1 4599   3.147   0.862   2.841
 1530SOL    HW2 4600   3.259   0.770   2.916
 1531SOL     OW 4601   3.071   0.525   2.137
 1531SOL    HW1 4602   3.084   0.441   2.191
 1531SOL    HW2 4603   3.042   0.599   2.197
 1532SOL     OW 4604   2.169   0.213   3.093
 1532SOL    HW1 4605   2.146   0.250   3.183
 1532SOL    HW2 4606   2.139   0.118   3.087
 1533SOL     OW 4607   1.899   1.310   3.144
 1533SOL    HW1 4608   1.952   1.261   3.212
 1533SOL    HW2 4609   1.921   1.408   3.149
 1534SOL     OW 4610   2.594   0.634   2.926
 1534SOL    HW1 4611   2.653   0.608   2.850
 1534SOL    HW2 4612   2.566   0.730   2.915
 1535SOL     OW 4613   3.590   0.935   3.716
 1535SOL    HW1 4614   3.544   0.928   3.627
 1535SOL    HW2 4615   3.528   0.979   3.782
 1536SOL     OW 4616   2.169   0.063   2.480
 1536SOL    HW1 4617   2.158   0.157   2.513
 1536SOL    HW2 4618   2.164   0.000   2.557
 1537SOL     OW 4619   3.484   0.367   2.236
 1537SOL    HW1 4620   3.486   0.291   2.300
 1537SOL    HW2 4621   3.436   0.444   2.276
 1538SOL     OW 4622   2.885   0.766   2.828
 1538SOL    HW1 4623   2.900   0.787   2.924
 1538SOL    HW2 4624   2.855   0.671   2.819
 1539SOL     OW 4625   2.842   1.573   3.562
 1539SOL    HW1 4626   2.822   1.617   3.474
 1539SOL    HW2 4627   2.881   1.482   3.546
 1540SOL     OW 4628   3.721   1.518   3.467
 1540SOL    HW1 4629   3.735   1.545   3.372
 1540SOL    HW2 4630   3.804   1.540   3.520
 1541SOL     OW 4631   2.212   0.898   3.666
 1541SOL    HW1 4632   2.288   0.942   3.714
 1541SOL    HW2 4633   2.247   0.851   3.584
 1542SOL     OW 4634   3.402   0.274   1.987
 1542SOL    HW1 4635   3.341   0.199   2.010
 1542SOL    HW2 4636   3.424   0.326   2.070
 1543SOL     OW 4637   3.165   0.838   1.904
 1543SOL    HW1 4638   3.199   0.745   1.919
 1543SOL    HW2 4639   3.183   0.865   1.809
 1544SOL     OW 4640   2.930   1.333   2.711
 1544SOL    HW1 4641   2.937   1.249   2.656
 1544SOL    HW2 4642   2.992   1.402   2.675
 1545SOL     OW 4643   2.181   0.810   2.811
 1545SOL    HW1 4644   2.274   0.846   2.816
 1545SOL    HW2 4645   2.175   0.725   2.863
 1546SOL     OW 4646   2.201   0.509   2.868
 1546SOL    HW1 4647   2.149   0.426   2.851
 1546SOL    HW2 4648   2.278   0.514   2.804
 1547SOL     OW 4649   3.000   0.380   3.540
 1547SOL    HW1 4650   2.955   0.443   3.604
 1547SOL    HW2 4651   3.093   0.411   3.523
 1548SOL     OW 4652   3.022   0.207   3.339
 1548SOL    HW1 4653   3.022   0.271   3.416
 1548SOL    HW2 4654   3.050   0.255   3.256
 1549SOL     OW 4655   1.870   1.326   2.062
 1549SOL    HW1 4656   1.777   1.347   2.031
 1549SOL    HW2 4657   1.880   1.227   2.075
 1550SOL     OW 4658   1.950   1.801   2.789
 1550SOL    HW1 4659   1.908   1.715   2.762
 1550SOL    HW2 4660   2.044   1.804   2.755
 1551SOL     OW 4661   2.366   1.568   2.772
 1551SOL    HW1 4662   2.432   1.642   2.781
 1551SOL    HW2 4663   2.410   1.489   2.730
 1552SOL     OW 4664   2.864   0.796   3.100
 1552SOL    HW1 4665   2.905   0.764   3.186
 1552SOL    HW2 4666   2.768   0.769   3.097
 1553SOL     OW 4667   1.902   0.544   2.976
 1553SOL    HW1 4668   1.987   0.511   2.935
 1553SOL    HW2 4669   1.915   0.559   3.074
 1554SOL     OW 4670   2.051   0.520   3.584
 1554SOL    HW1 4671   2.110   0.480   3.514
 1554SOL    HW2 4672   1.993   0.591   3.543
 1555SOL     OW 4673   3.231   0.950   3.522
 1555SOL    HW1 4674   3.270   1.039   3.542
 1555SOL    HW2 4675   3.241   0.930   3.425
 1556SOL     OW 4676   2.677   0.572   2.187
 1556SOL    HW1 4677   2.684   0.483   2.141
 1556SOL    HW2 4678   2.583   0.606   2.179
 1557SOL     OW 4679   3.519   0.604   3.068
 1557SOL    HW1 4680   3.481   0.535   3.130
 1557SOL    HW2 4681   3.601   0.568   3.024
 1558SOL     OW 4682   2.114   1.564   3.606
 1558SOL    HW1 4683   2.084   1.621   3.682
 1558SOL    HW2 4684   2.107   1.467   3.632
 1559SOL     OW 4685   2.533   0.464   3.131
 1559SOL    HW1 4686   2.499   0.375   3.101
 1559SOL    HW2 4687   2.559   0.518   3.051
 1560SOL     OW 4688   2.792   1.678   3.327
 1560SOL    HW1 4689   2.768   1.660   3.232
 1560SOL    HW2 4690   2.822   1.772   3.337
 1561SOL     OW 4691   2.335   0.500   2.053
 1561SOL    HW1 4692   2.396   0.580   2.057
 1561SOL    HW2 4693   2.240   0.531   2.060
 1562SOL     OW 4694   2.021   1.137   3.328
 1562SOL    HW1 4695   2.043   1.076   3.404
 1562SOL    HW2 4696   2.031   1.088   3.242
 1563SOL     OW 4697   3.209   1.059   3.096
 1563SOL    HW1 4698   3.233   0.996   3.022
 1563SOL    HW2 4699   3.119   1.099   3.078
 1564SOL     OW 4700   3.164   0.855   2.171
 1564SOL    HW1 4701   3.078   0.824   2.213
 1564SOL    HW2 4702   3.160   0.841   2.072
 1565SOL     OW 4703   3.621   1.747   3.016
 1565SOL    HW1 4704   3.682   1.777   2.943
 1565SOL    HW2 4705   3.583   1.658   2.994
 1566SOL     OW 4706   3.114   1.731   2.990
 1566SOL    HW1 4707   3.198   1.736   2.936
 1566SOL    HW2 4708   3.091   1.635   3.008
 1567SOL     OW 4709   1.945   1.258   2.884
 1567SOL    HW1 4710   1.940   1.257   2.984
 1567SOL    HW2 4711   1.862   1.217   2.846
 1568SOL     OW 4712   2.550   1.662   3.578
 1568SOL    HW1 4713   2.494   1.743   3.587
 1568SOL    HW2 4714   2.602   1.666   3.492
 1569SOL     OW 4715   3.588   0.135   2.385
 1569SOL    HW1 4716   3.661   0.118   2.318
 1569SOL    HW2 4717   3.557   0.048   2.423
 1570SOL     OW 4718   3.250   1.573   2.339
 1570SOL    HW1 4719   3.317   1.585   2.265
 1570SOL    HW2 4720   3.210   1.662   2.362
 1571SOL     OW 4721   1.992   1.794   3.713
 1571SOL    HW1 4722   1.951   1.720   3.766
 1571SOL    HW2 4723   2.056   1.845   3.771
 1572SOL     OW 4724   3.142   0.927   2.534
 1572SOL    HW1 4725   3.202   0.846   2.536
 1572SOL    HW2 4726   3.182   0.996   2.474
 1573SOL     OW 4727   2.692   1.273   3.284
 1573SOL    HW1 4728   2.687   1.306   3.379
 1573SOL    HW2 4729   2.606   1.292   3.238
 1574SOL     OW 4730   2.534   1.616   2.016
 1574SOL    HW1 4731   2.543   1.626   1.917
 1574SOL    HW2 4732   2.494   1.527   2.037
 1575SOL     OW 4733   3.512   1.720   3.256
 1575SOL    HW1 4734   3.565   1.730   3.172
 1575SOL    HW2 4735   3.485   1.810   3.290
 1576SOL     OW 4736   3.703   0.175   2.825
 1576SOL    HW1 4737   3.742   0.090   2.789
 1576SOL    HW2 4738   3.605   0.177   2.806
 1577SOL     OW 4739   2.125   0.326   2.582
 1577SOL    HW1 4740   2.046   0.377   2.548
 1577SOL    HW2 4741   2.116   0.311   2.680
 1578SOL     OW 4742   3.056   1.612   1.893
 1578SOL    HW1 4743   3.062   1.519   1.930
 1578SOL    HW2 4744   2.997   1.612   1.813
 1579SOL     OW 4745   2.684   1.002   3.234
 1579SOL    HW1 4746   2.724   1.001   3.142
 1579SOL    HW2 4747   2.694   1.094   3.274
 1580SOL     OW 4748   2.778   0.910   2.153
 1580SOL    HW1 4749   2.841   0.948   2.085
 1580SOL    HW2 4750   2.818   0.827   2.192
 1581SOL     OW 4751   3.366   1.607   1.906
 1581SOL    HW1 4752   3.274   1.644   1.913
 1581SOL    HW2 4753   3.404   1.627   1.816
 1582SOL     OW 4754   2.234   1.288   3.352
 1582SOL    HW1 4755   2.221   1.381   3.318
 1582SOL    HW2 4756   2.150   1.236   3.339
 1583SOL     OW 4757   3.476   1.292   3.151
 1583SOL    HW1 4758   3.536   1.295   3.231
 1583SOL    HW2 4759   3.401   1.356   3.164
 1584SOL     OW 4760   2.901   1.098   2.558
 1584SOL    HW1 4761   2.831   1.051   2.612
 1584SOL    HW2 4762   2.960   1.030   2.515
 1585SOL     OW 4763   2.876   0.236   2.833
 1585SOL    HW1 4764   2.868   0.200   2.740
 1585SOL    HW2 4765   2.874   0.160   2.898
 1586SOL     OW 4766   2.452   1.487   2.353
 1586SOL    HW1 4767   2.494   1.429   2.283
 1586SOL    HW2 4768   2.408   1.566   2.309
 1587SOL     OW 4769   3.571   0.385   3.243
 1587SOL    HW1 4770   3.644   0.454   3.247
 1587SOL    HW2 4771   3.599   0.310   3.184
 1588SOL     OW 4772   2.117   1.348   2.152
 1588SOL    HW1 4773   2.021   1.349   2.125
 1588SOL    HW2 4774   2.129   1.401   2.236
 1589SOL     OW 4775   1.967   1.013   3.588
 1589SOL    HW1 4776   1.890   0.980   3.642
 1589SOL    HW2 4777   2.052   0.983   3.630
 1590SOL     OW 4778   2.534   0.203   3.351
 1590SOL    HW1 4779   2.624   0.187   3.311
 1590SOL    HW2 4780   2.542   0.208   3.450
 1591SOL     OW 4781   1.937   0.345   1.895
 1591SOL    HW1 4782   1.845   0.317   1.866
 1591SOL    HW2 4783   1.968   0.422   1.839
 1592SOL     OW 4784   3.302   0.856   3.260
 1592SOL    HW1 4785   3.245   0.908   3.197
 1592SOL    HW2 4786   3.398   0.868   3.236
 1593SOL     OW 4787   1.934   0.166   2.180
 1593SOL    HW1 4788   1.917   0.249   2.126
 1593SOL    HW2 4789   2.024   0.129   2.158
 1594SOL     OW 4790   3.045   1.335   1.981
 1594SOL    HW1 4791   2.946   1.324   1.983
 1594SOL    HW2 4792   3.079   1.350   2.074
 1595SOL     OW 4793   2.475   0.842   3.293
 1595SOL    HW1 4794   2.531   0.923   3.276
 1595SOL    HW2 4795   2.534   0.762   3.296
 1596SOL     OW 4796   3.355   1.767   2.821
 1596SOL    HW1 4797   3.388   1.831   2.752
 1596SOL    HW2 4798   3.421   1.761   2.896
 1597SOL     OW 4799   2.578   0.565   3.570
 1597SOL    HW1 4800   2.597   0.630   3.644
 1597SOL    HW2 4801   2.638   0.485   3.579
 1598SOL     OW 4802   3.312   1.220   3.495
 1598SOL    HW1 4803   3.303   1.210   3.594
 1598SOL    HW2 4804   3.408   1.213   3.469
 1599SOL     OW 4805   2.252   1.741   3.422
 1599SOL    HW1 4806   2.161   1.782   3.420
 1599SOL    HW2 4807   2.245   1.647   3.454
 1600SOL     OW 4808   3.536   0.883   3.116
 1600SOL    HW1 4809   3.509   0.794   3.079
 1600SOL    HW2 4810   3.537   0.951   3.043
 1601SOL     OW 4811   3.087   0.325   2.311
 1601SOL    HW1 4812   3.152   0.251   2.300
 1601SOL    HW2 4813   3.107   0.375   2.395
 1602SOL     OW 4814   2.456   0.745   2.514
 1602SOL    HW1 4815   2.506   0.830   2.495
 1602SOL    HW2 4816   2.368   0.747   2.466
 1603SOL     OW 4817   3.639   0.342   3.504
 1603SOL    HW1 4818   3.622   0.373   3.410
 1603SOL    HW2 4819   3.555   0.305   3.542
 1604SOL     OW 4820   3.592   0.934   3.379
 1604SOL    HW1 4821   3.630   1.025   3.394
 1604SOL    HW2 4822   3.584   0.917   3.280
 1605SOL     OW 4823   2.721   1.374   1.878
 1605SOL    HW1 4824   2.675   1.389   1.966
 1605SOL    HW2 4825   2.765   1.459   1.848
 1606SOL     OW 4826   2.523   1.790   2.815
 1606SOL    HW1 4827   2.477   1.878   2.802
 1606SOL    HW2 4828   2.622   1.802   2.808
 1607SOL     OW 4829   2.721   0.956   2.723
 1607SOL    HW1 4830   2.775   0.887   2.771
 1607SOL    HW2 4831   2.689   1.025   2.789
 1608SOL     OW 4832   2.945   0.984   1.949
 1608SOL    HW1 4833   2.922   1.037   1.867
 1608SOL    HW2 4834   3.026   0.928   1.930
 1609SOL     OW 4835   3.723   1.569   2.713
 1609SOL    HW1 4836   3.652   1.557   2.643
 1609SOL    HW2 4837   3.724   1.490   2.773
 1610SOL     OW 4838   2.083   1.314   3.706
 1610SOL    HW1 4839   2.018   1.241   3.685
 1610SOL    HW2 4840   2.087   1.328   3.804
 1611SOL     OW 4841   1.941   1.240   2.515
 1611SOL    HW1 4842   1.940   1.193   2.603
 1611SOL    HW2 4843   2.023   1.212   2.464
 1612SOL     OW 4844   2.534   1.391   3.486
 1612SOL    HW1 4845   2.456   1.341   3.524
 1612SOL    HW2 4846   2.531   1.486   3.517
 1613SOL     OW 4847   3.686   0.192   3.089
 1613SOL    HW1 4848   3.682   0.102   3.133
 1613SOL    HW2 4849   3.689   0.181   2.990
 1614SOL     OW 4850   2.290   0.424   2.382
 1614SOL    HW1 4851   2.320   0.352   2.320
 1614SOL    HW2 4852   2.251   0.384   2.465
 1615SOL     OW 4853   3.567   1.487   2.966
 1615SOL    HW1 4854   3.474   1.462   2.939
 1615SOL    HW2 4855   3.593   1.437   3.048
 1616SOL     OW 4856   2.179   0.547   3.142
 1616SOL    HW1 4857   2.217   0.488   3.214
 1616SOL    HW2 4858   2.219   0.521   3.054
 1617SOL     OW 4859   2.674   1.586   2.549
 1617SOL    HW1 4860   2.706   1.596   2.455
 1617SOL    HW2 4861   2.595   1.524   2.551
 1618SOL     OW 4862   3.286   0.214   2.974
 1618SOL    HW1 4863   3.338   0.149   3.029
 1618SOL    HW2 4864   3.237   0.277   3.035
 1619SOL     OW 4865   2.863   0.034   3.016
 1619SOL    HW1 4866   2.800  -0.038   2.985
 1619SOL    HW2 4867   2.956  -0.002   3.016
 1620SOL     OW 4868   2.632   1.330   2.163
 1620SOL    HW1 4869   2.586   1.243   2.180
 1620SOL    HW2 4870   2.723   1.327   2.204
 1621SOL     OW 4871   2.480   1.567   3.146
 1621SOL    HW1 4872   2.475   1.649   3.203
 1621SOL    HW2 4873   2.569   1.564   3.101
 1622SOL     OW 4874   3.214   0.052   2.030
 1622SOL    HW1 4875   3.249   0.011   1.946
 1622SOL    HW2 4876   3.124   0.014   2.050
 1623SOL     OW 4877   3.162   0.453   2.553
 1623SOL    HW1 4878   3.103   0.533   2.557
 1623SOL    HW2 4879   3.177   0.418   2.646
 1624SOL     OW 4880   3.455   0.221   2.744
 1624SOL    HW1 4881   3.371   0.220   2.798
 1624SOL    HW2 4882   3.457   0.304   2.688
 1625SOL     OW 4883   1.901   1.077   2.162
 1625SOL    HW1 4884   2.000   1.066   2.153
 1625SOL    HW2 4885   1.861   0.991   2.194
 1626SOL     OW 4886   2.737   1.646   2.199
 1626SOL    HW1 4887   2.660   1.611   2.145
 1626SOL    HW2 4888   2.705   1.717   2.261
 1627SOL     OW 4889   2.092   0.628   3.837
 1627SOL    HW1 4890   1.999   0.626   3.874
 1627SOL    HW2 4891   2.093   0.589   3.745
 1628SOL     OW 4892   3.617   0.607   3.955
 1628SOL    HW1 4893   3.605   0.594   3.856
 1628SOL    HW2 4894   3.587   0.526   4.004
 1629SOL     OW 4895   2.093   1.713   4.207
 1629SOL    HW1 4896   2.127   1.790   4.261
 1629SOL    HW2 4897   2.137   1.713   4.117
 1630SOL     OW 4898   2.092   1.434   4.262
 1630SOL    HW1 4899   2.066   1.530   4.262
 1630SOL    HW2 4900   2.021   1.380   4.307
 1631SOL     OW 4901   2.468   0.964   3.847
 1631SOL    HW1 4902   2.475   1.048   3.793
 1631SOL    HW2 4903   2.514   0.977   3.935
 1632SOL     OW 4904   1.984   0.643   4.287
 1632SOL    HW1 4905   1.939   0.555   4.304
 1632SOL    HW2 4906   1.983   0.697   4.371
 1633SOL     OW 4907   3.704   1.767   4.083
 1633SOL    HW1 4908   3.758   1.738   4.163
 1633SOL    HW2 4909   3.734   1.857   4.054
 1634SOL     OW 4910   1.889   1.596   3.841
 1634SOL    HW1 4911   1.870   1.500   3.862
 1634SOL    HW2 4912   1.856   1.654   3.916
 1635SOL     OW 4913   3.551   0.922   4.336
 1635SOL    HW1 4914   3.646   0.893   4.344
 1635SOL    HW2 4915   3.543   0.987   4.261
 1636SOL     OW 4916   3.503   1.108   4.156
 1636SOL    HW1 4917   3.589   1.110   4.104
 1636SOL    HW2 4918   3.517   1.155   4.244
 1637SOL     OW 4919   2.475   1.365   4.450
 1637SOL    HW1 4920   2.426   1.278   4.459
 1637SOL    HW2 4921   2.452   1.408   4.363
 1638SOL     OW 4922   2.671   0.004   4.226
 1638SOL    HW1 4923   2.711   0.095   4.217
 1638SOL    HW2 4924   2.571   0.012   4.232
 1639SOL     OW 4925   3.387   0.999   3.914
 1639SOL    HW1 4926   3.324   0.923   3.927
 1639SOL    HW2 4927   3.435   1.017   4.000
 1640SOL     OW 4928   3.328   1.417   4.677
 1640SOL    HW1 4929   3.269   1.423   4.757
 1640SOL    HW2 4930   3.313   1.329   4.631
 1641SOL     OW 4931   2.460   0.729   3.994
 1641SOL    HW1 4932   2.484   0.798   3.926
 1641SOL    HW2 4933   2.382   0.762   4.048
 1642SOL     OW 4934   3.438   1.662   4.031
 1642SOL    HW1 4935   3.527   1.708   4.034
 1642SOL    HW2 4936   3.417   1.638   3.936
 1643SOL     OW 4937   2.903   0.701   4.153
 1643SOL    HW1 4938   2.929   0.697   4.249
 1643SOL    HW2 4939   2.818   0.650   4.139
 1644SOL     OW 4940   1.938   0.811   4.513
 1644SOL    HW1 4941   2.037   0.799   4.522
 1644SOL    HW2 4942   1.914   0.906   4.534
 1645SOL     OW 4943   2.727   0.348   3.919
 1645SOL    HW1 4944   2.786   0.411   3.870
 1645SOL    HW2 4945   2.746   0.254   3.890
 1646SOL     OW 4946   3.224   1.144   4.269
 1646SOL    HW1 4947   3.307   1.115   4.221
 1646SOL    HW2 4948   3.175   1.211   4.213
 1647SOL     OW 4949   2.870   1.456   4.201
 1647SOL    HW1 4950   2.824   1.528   4.149
 1647SOL    HW2 4951   2.866   1.476   4.299
 1648SOL     OW 4952   2.213   1.801   4.577
 1648SOL    HW1 4953   2.263   1.715   4.583
 1648SOL    HW2 4954   2.278   1.878   4.574
 1649SOL     OW 4955   3.657   1.066   4.597
 1649SOL    HW1 4956   3.595   1.051   4.521
 1649SOL    HW2 4957   3.605   1.077   4.682
 1650SOL     OW 4958   2.183   0.943   3.966
 1650SOL    HW1 4959   2.265   0.982   3.924
 1650SOL    HW2 4960   2.156   0.861   3.917
 1651SOL     OW 4961   2.973   1.776   3.961
 1651SOL    HW1 4962   2.913   1.714   4.011
 1651SOL    HW2 4963   3.004   1.732   3.876
 1652SOL     OW 4964   3.494   1.377   3.805
 1652SOL    HW1 4965   3.462   1.471   3.795
 1652SOL    HW2 4966   3.418   1.314   3.793
 1653SOL     OW 4967   2.326   1.743   4.047
 1653SOL    HW1 4968   2.359   1.782   4.133
 1653SOL    HW2 4969   2.402   1.736   3.982
 1654SOL     OW 4970   3.262   0.107   4.150
 1654SOL    HW1 4971   3.238   0.070   4.060
 1654SOL    HW2 4972   3.361   0.123   4.154
 1655SOL     OW 4973   2.244   0.700   4.204
 1655SOL    HW1 4974   2.289   0.610   4.201
 1655SOL    HW2 4975   2.150   0.689   4.237
 1656SOL     OW 4976   2.476   0.122   3.841
 1656SOL    HW1 4977   2.574   0.100   3.848
 1656SOL    HW2 4978   2.445   0.105   3.748
 1657SOL     OW 4979   2.401   0.064   4.236
 1657SOL    HW1 4980   2.320   0.065   4.294
 1657SOL    HW2 4981   2.404   0.147   4.181
 1658SOL     OW 4982   3.296   1.188   3.765
 1658SOL    HW1 4983   3.328   1.112   3.822
 1658SOL    HW2 4984   3.204   1.215   3.795
 1659SOL     OW 4985   2.159   0.035   3.895
 1659SOL    HW1 4986   2.208   0.119   3.874
 1659SOL    HW2 4987   2.221  -0.030   3.940
 1660SOL     OW 4988   2.797   0.236   4.204
 1660SOL    HW1 4989   2.749   0.277   4.126
 1660SOL    HW2 4990   2.896   0.234   4.185
 1661SOL     OW 4991   2.321   1.152   4.465
 1661SOL    HW1 4992   2.250   1.125   4.530
 1661SOL    HW2 4993   2.295   1.124   4.372
 1662SOL     OW 4994   3.133   1.797   4.315
 1662SOL    HW1 4995   3.177   1.861   4.251
 1662SOL    HW2 4996   3.083   1.849   4.385
 1663SOL     OW 4997   2.894   0.549   3.740
 1663SOL    HW1 4998   2.853   0.631   3.701
 1663SOL    HW2 4999   2.958   0.575   3.813
 1664SOL     OW 5000   2.728   0.454   4.366
 1664SOL    HW1 5001   2.696   0.526   4.304
 1664SOL    HW2 5002   2.752   0.373   4.313
 1665SOL     OW 5003   3.719   0.833   4.101
 1665SOL    HW1 5004   3.761   0.769   4.165
 1665SOL    HW2 5005   3.681   0.782   4.023
 1666SOL     OW 5006   2.350   1.385   3.898
 1666SOL    HW1 5007   2.263   1.370   3.945
 1666SOL    HW2 5008   2.333   1.411   3.803
 1667SOL     OW 5009   3.252   0.575   3.802
 1667SOL    HW1 5010   3.198   0.554   3.883
 1667SOL    HW2 5011   3.343   0.534   3.811
 1668SOL     OW 5012   2.389   0.256   4.052
 1668SOL    HW1 5013   2.416   0.197   3.977
 1668SOL    HW2 5014   2.389   0.351   4.021
 1669SOL     OW 5015   2.567   1.050   4.092
 1669SOL    HW1 5016   2.553   1.057   4.191
 1669SOL    HW2 5017   2.651   0.999   4.074
 1670SOL     OW 5018   2.229   1.100   4.225
 1670SOL    HW1 5019   2.222   1.183   4.169
 1670SOL    HW2 5020   2.233   1.020   4.165
 1671SOL     OW 5021   3.114   1.348   4.112
 1671SOL    HW1 5022   3.164   1.425   4.152
 1671SOL    HW2 5023   3.019   1.350   4.144
 1672SOL     OW 5024   3.444   0.639   4.196
 1672SOL    HW1 5025   3.413   0.700   4.269
 1672SOL    HW2 5026   3.494   0.691   4.127
 1673SOL     OW 5027   3.071   0.525   3.999
 1673SOL    HW1 5028   3.084   0.441   4.053
 1673SOL    HW2 5029   3.042   0.599   4.059
 1674SOL     OW 5030   2.169   0.063   4.342
 1674SOL    HW1 5031   2.158   0.157   4.375
 1674SOL    HW2 5032   2.164   0.000   4.419
 1675SOL     OW 5033   3.484   0.367   4.098
 1675SOL    HW1 5034   3.486   0.291   4.162
 1675SOL    HW2 5035   3.436   0.444   4.138
 1676SOL     OW 5036   3.402   0.274   3.849
 1676SOL    HW1 5037   3.341   0.199   3.872
 1676SOL    HW2 5038   3.424   0.326   3.932
 1677SOL     OW 5039   3.165   0.838   3.766
 1677SOL    HW1 5040   3.199   0.745   3.781
 1677SOL    HW2 5041   3.183   0.865   3.671
 1678SOL     OW 5042   1.870   1.326   3.924
 1678SOL    HW1 5043   1.777   1.347   3.893
 1678SOL    HW2 5044   1.880   1.227   3.937
 1679SOL     OW 5045   2.677   0.572   4.049
 1679SOL    HW1 5046   2.684   0.483   4.003
 1679SOL    HW2 5047   2.583   0.606   4.041
 1680SOL     OW 5048   2.335   0.500   3.915
 1680SOL    HW1 5049   2.396   0.580   3.919
 1680SOL    HW2 5050   2.240   0.531   3.922
 1681SOL     OW 5051   3.164   0.855   4.033
 1681SOL    HW1 5052   3.078   0.824   4.075
 1681SOL    HW2 5053   3.160   0.841   3.934
 1682SOL     OW 5054   3.588   0.135   4.247
 1682SOL    HW1 5055   3.661   0.118   4.180
 1682SOL    HW2 5056   3.557   0.048   4.285
 1683SOL     OW 5057   3.250   1.573   4.201
 1683SOL    HW1 5058   3.317   1.585   4.127
 1683SOL    HW2 5059   3.210   1.662   4.224
 1684SOL     OW 5060   2.534   1.616   3.878
 1684SOL    HW1 5061   2.543   1.626   3.779
 1684SOL    HW2 5062   2.494   1.527   3.899
 1685SOL     OW 5063   3.703   0.175   4.687
 1685SOL    HW1 5064   3.742   0.090   4.651
 1685SOL    HW2 5065   3.605   0.177   4.668
 1686SOL     OW 5066   3.056   1.612   3.755
 1686SOL    HW1 5067   3.062   1.519   3.792
 1686SOL    HW2 5068   2.997   1.612   3.675
 1687SOL     OW 5069   2.778   0.910   4.015
 1687SOL    HW1 5070   2.841   0.948   3.947
 1687SOL    HW2 5071   2.818   0.827   4.054
 1688SOL     OW 5072   3.366   1.607   3.768
 1688SOL    HW1 5073   3.274   1.644   3.775
 1688SOL    HW2 5074   3.404   1.627   3.678
 1689SOL     OW 5075   2.452   1.487   4.215
 1689SOL    HW1 5076   2.494   1.429   4.145
 1689SOL    HW2 5077   2.408   1.566   4.171
 1690SOL     OW 5078   2.117   1.348   4.014
 1690SOL    HW1 5079   2.021   1.349   3.987
 1690SOL    HW2 5080   2.129   1.401   4.098
 1691SOL     OW 5081   1.937   0.345   3.757
 1691SOL    HW1 5082   1.845   0.317   3.728
 1691SOL    HW2 5083   1.968   0.422   3.701
 1692SOL     OW 5084   1.934   0.166   4.042
 1692SOL    HW1 5085   1.917   0.249   3.988
 1692SOL    HW2 5086   2.024   0.129   4.020
 1693SOL     OW 5087   3.045   1.335   3.843
 1693SOL    HW1 5088   2.946   1.324   3.845
 1693SOL    HW2 5089   3.079   1.350   3.936
 1694SOL     OW 5090   3.087   0.325   4.173
 1694SOL    HW1 5091   3.152   0.251   4.162
 1694SOL    HW2 5092   3.107   0.375   4.257
 1695SOL     OW 5093   2.456   0.745   4.376
 1695SOL    HW1 5094   2.506   0.830   4.357
 1695SOL    HW2 5095   2.368   0.747   4.328
 1696SOL     OW 5096   2.721   1.374   3.740
 1696SOL    HW1 5097   2.675   1.389   3.828
 1696SOL    HW2 5098   2.765   1.459   3.710
 1697SOL     OW 5099   2.945   0.984   3.811
 1697SOL    HW1 5100   2.922   1.037   3.729
 1697SOL    HW2 5101   3.026   0.928   3.792
 1698SOL     OW 5102   1.941   1.240   4.377
 1698SOL    HW1 5103   1.940   1.193   4.465
 1698SOL    HW2 5104   2.023   1.212   4.326
 1699SOL     OW 5105   2.290   0.424   4.244
 1699SOL    HW1 5106   2.320   0.352   4.182
 1699SOL    HW2 5107   2.251   0.384   4.327
 1700SOL     OW 5108   2.674   1.586   4.411
 1700SOL    HW1 5109   2.706   1.596   4.317
 1700SOL    HW2 5110   2.595   1.524   4.413
 1701SOL     OW 5111   2.632   1.330   4.025
 1701SOL    HW1 5112   2.586   1.243   4.042
 1701SOL    HW2 5113   2.723   1.327   4.066
 1702SOL     OW 5114   3.214   0.052   3.892
 1702SOL    HW1 5115   3.249   0.011   3.808
 1702SOL    HW2 5116   3.124   0.014   3.912
 1703SOL     OW 5117   3.162   0.453   4.415
 1703SOL    HW1 5118   3.103   0.533   4.419
 1703SOL    HW2 5119   3.177   0.418   4.508
 1704SOL     OW 5120   1.901   1.077   4.024
 1704SOL    HW1 5121   2.000   1.066   4.015
 1704SOL    HW2 5122   1.861   0.991   4.056
 1705SOL     OW 5123   2.737   1.646   4.061
 1705SOL    HW1 5124   2.660   1.611   4.007
 1705SOL    HW2 5125   2.705   1.717   4.123
 1706SOL     OW 5126   2.092   2.490   0.113
 1706SOL    HW1 5127   1.999   2.488   0.150
 1706SOL    HW2 5128   2.093   2.451   0.021
 1707SOL     OW 5129   2.087   2.137   0.996
 1707SOL    HW1 5130   2.122   2.120   1.088
 1707SOL    HW2 5131   1.999   2.092   0.984
 1708SOL     OW 5132   1.881   2.230   0.647
 1708SOL    HW1 5133   1.799   2.273   0.686
 1708SOL    HW2 5134   1.853   2.157   0.584
 1709SOL     OW 5135   2.431   3.137   1.165
 1709SOL    HW1 5136   2.338   3.130   1.128
 1709SOL    HW2 5137   2.442   3.226   1.209
 1710SOL     OW 5138   3.417   3.373   0.703
 1710SOL    HW1 5139   3.360   3.357   0.784
 1710SOL    HW2 5140   3.358   3.383   0.623
 1711SOL     OW 5141   2.997   2.565   0.717
 1711SOL    HW1 5142   3.054   2.643   0.692
 1711SOL    HW2 5143   2.937   2.591   0.793
 1712SOL     OW 5144   3.617   2.469   0.231
 1712SOL    HW1 5145   3.605   2.456   0.132
 1712SOL    HW2 5146   3.587   2.388   0.280
 1713SOL     OW 5147   2.630   3.006   1.023
 1713SOL    HW1 5148   2.552   3.023   1.083
 1713SOL    HW2 5149   2.664   3.093   0.987
 1714SOL     OW 5150   2.712   2.660   1.823
 1714SOL    HW1 5151   2.708   2.736   1.888
 1714SOL    HW2 5152   2.734   2.696   1.732
 1715SOL     OW 5153   2.547   2.874   0.665
 1715SOL    HW1 5154   2.616   2.858   0.735
 1715SOL    HW2 5155   2.474   2.931   0.703
 1716SOL     OW 5156   2.548   3.023   1.803
 1716SOL    HW1 5157   2.608   3.102   1.817
 1716SOL    HW2 5158   2.462   3.054   1.762
 1717SOL     OW 5159   2.197   3.297   1.061
 1717SOL    HW1 5160   2.119   3.266   1.008
 1717SOL    HW2 5161   2.255   3.355   1.004
 1718SOL     OW 5162   3.322   3.367   1.339
 1718SOL    HW1 5163   3.346   3.461   1.365
 1718SOL    HW2 5164   3.306   3.313   1.421
 1719SOL     OW 5165   2.300   2.254   1.499
 1719SOL    HW1 5166   2.382   2.198   1.508
 1719SOL    HW2 5167   2.219   2.196   1.503
 1720SOL     OW 5168   3.465   2.309   0.737
 1720SOL    HW1 5169   3.391   2.355   0.687
 1720SOL    HW2 5170   3.516   2.377   0.790
 1721SOL     OW 5171   2.093   3.575   0.483
 1721SOL    HW1 5172   2.127   3.652   0.537
 1721SOL    HW2 5173   2.137   3.575   0.393
 1722SOL     OW 5174   2.989   3.203   1.690
 1722SOL    HW1 5175   3.036   3.203   1.778
 1722SOL    HW2 5176   2.941   3.116   1.679
 1723SOL     OW 5177   2.092   3.296   0.538
 1723SOL    HW1 5178   2.066   3.392   0.538
 1723SOL    HW2 5179   2.021   3.242   0.583
 1724SOL     OW 5180   2.102   2.953   0.886
 1724SOL    HW1 5181   2.116   2.869   0.938
 1724SOL    HW2 5182   2.047   3.017   0.941
 1725SOL     OW 5183   2.482   3.648   1.439
 1725SOL    HW1 5184   2.390   3.631   1.474
 1725SOL    HW2 5185   2.510   3.740   1.465
 1726SOL     OW 5186   2.468   2.826   0.123
 1726SOL    HW1 5187   2.475   2.910   0.069
 1726SOL    HW2 5188   2.514   2.839   0.211
 1727SOL     OW 5189   3.456   1.976   1.480
 1727SOL    HW1 5190   3.438   2.043   1.408
 1727SOL    HW2 5191   3.453   2.022   1.569
 1728SOL     OW 5192   1.984   2.505   0.563
 1728SOL    HW1 5193   1.939   2.417   0.580
 1728SOL    HW2 5194   1.983   2.559   0.647
 1729SOL     OW 5195   3.704   3.629   0.359
 1729SOL    HW1 5196   3.758   3.600   0.439
 1729SOL    HW2 5197   3.734   3.719   0.330
 1730SOL     OW 5198   1.889   3.458   0.117
 1730SOL    HW1 5199   1.870   3.362   0.138
 1730SOL    HW2 5200   1.856   3.516   0.192
 1731SOL     OW 5201   3.551   2.784   0.612
 1731SOL    HW1 5202   3.646   2.755   0.620
 1731SOL    HW2 5203   3.543   2.849   0.537
 1732SOL     OW 5204   3.503   2.970   0.432
 1732SOL    HW1 5205   3.589   2.972   0.380
 1732SOL    HW2 5206   3.517   3.017   0.520
 1733SOL     OW 5207   1.975   2.599   1.597
 1733SOL    HW1 5208   2.063   2.586   1.642
 1733SOL    HW2 5209   1.962   2.696   1.575
 1734SOL     OW 5210   2.475   3.227   0.726
 1734SOL    HW1 5211   2.426   3.140   0.735
 1734SOL    HW2 5212   2.452   3.270   0.639
 1735SOL     OW 5213   3.155   3.090   1.423
 1735SOL    HW1 5214   3.192   3.017   1.365
 1735SOL    HW2 5215   3.207   3.095   1.508
 1736SOL     OW 5216   2.671   1.866   0.502
 1736SOL    HW1 5217   2.711   1.957   0.493
 1736SOL    HW2 5218   2.571   1.874   0.508
 1737SOL     OW 5219   2.059   2.838   1.264
 1737SOL    HW1 5220   2.148   2.793   1.250
 1737SOL    HW2 5221   1.986   2.773   1.245
 1738SOL     OW 5222   3.387   2.861   0.190
 1738SOL    HW1 5223   3.324   2.785   0.203
 1738SOL    HW2 5224   3.435   2.879   0.276
 1739SOL     OW 5225   3.049   3.654   1.616
 1739SOL    HW1 5226   3.073   3.714   1.540
 1739SOL    HW2 5227   3.056   3.559   1.586
 1740SOL     OW 5228   2.179   2.113   1.801
 1740SOL    HW1 5229   2.250   2.184   1.807
 1740SOL    HW2 5230   2.091   2.152   1.829
 1741SOL     OW 5231   3.328   3.279   0.953
 1741SOL    HW1 5232   3.269   3.285   1.033
 1741SOL    HW2 5233   3.313   3.191   0.907
 1742SOL     OW 5234   3.529   3.576   0.572
 1742SOL    HW1 5235   3.488   3.553   0.484
 1742SOL    HW2 5236   3.511   3.502   0.637
 1743SOL     OW 5237   2.460   2.591   0.270
 1743SOL    HW1 5238   2.484   2.660   0.202
 1743SOL    HW2 5239   2.382   2.624   0.324
 1744SOL     OW 5240   3.143   2.207   0.944
 1744SOL    HW1 5241   3.057   2.157   0.931
 1744SOL    HW2 5242   3.205   2.153   1.000
 1745SOL     OW 5243   3.438   3.524   0.307
 1745SOL    HW1 5244   3.527   3.570   0.310
 1745SOL    HW2 5245   3.417   3.500   0.212
 1746SOL     OW 5246   2.669   2.467   1.465
 1746SOL    HW1 5247   2.622   2.464   1.554
 1746SOL    HW2 5248   2.618   2.412   1.399
 1747SOL     OW 5249   3.256   2.331   1.674
 1747SOL    HW1 5250   3.236   2.374   1.762
 1747SOL    HW2 5251   3.334   2.269   1.683
 1748SOL     OW 5252   2.835   2.752   1.572
 1748SOL    HW1 5253   2.881   2.668   1.543
 1748SOL    HW2 5254   2.779   2.786   1.497
 1749SOL     OW 5255   2.853   2.272   1.242
 1749SOL    HW1 5256   2.776   2.306   1.296
 1749SOL    HW2 5257   2.819   2.221   1.163
 1750SOL     OW 5258   2.903   2.563   0.429
 1750SOL    HW1 5259   2.929   2.559   0.525
 1750SOL    HW2 5260   2.818   2.512   0.415
 1751SOL     OW 5261   1.938   2.673   0.789
 1751SOL    HW1 5262   2.037   2.661   0.798
 1751SOL    HW2 5263   1.914   2.768   0.810
 1752SOL     OW 5264   1.992   3.683   1.571
 1752SOL    HW1 5265   1.982   3.668   1.670
 1752SOL    HW2 5266   1.906   3.719   1.535
 1753SOL     OW 5267   2.727   2.210   0.195
 1753SOL    HW1 5268   2.786   2.273   0.146
 1753SOL    HW2 5269   2.746   2.116   0.166
 1754SOL     OW 5270   3.581   2.447   1.831
 1754SOL    HW1 5271   3.555   2.536   1.795
 1754SOL    HW2 5272   3.579   2.379   1.758
 1755SOL     OW 5273   3.224   3.006   0.545
 1755SOL    HW1 5274   3.307   2.977   0.497
 1755SOL    HW2 5275   3.175   3.073   0.489
 1756SOL     OW 5276   2.412   2.058   0.885
 1756SOL    HW1 5277   2.407   2.053   0.985
 1756SOL    HW2 5278   2.414   2.154   0.856
 1757SOL     OW 5279   2.870   3.318   0.477
 1757SOL    HW1 5280   2.824   3.390   0.425
 1757SOL    HW2 5281   2.866   3.338   0.575
 1758SOL     OW 5282   2.213   3.663   0.853
 1758SOL    HW1 5283   2.263   3.577   0.859
 1758SOL    HW2 5284   2.278   3.740   0.850
 1759SOL     OW 5285   3.657   2.928   0.873
 1759SOL    HW1 5286   3.595   2.913   0.797
 1759SOL    HW2 5287   3.605   2.939   0.958
 1760SOL     OW 5288   3.089   3.412   1.506
 1760SOL    HW1 5289   3.095   3.335   1.570
 1760SOL    HW2 5290   3.037   3.386   1.426
 1761SOL     OW 5291   2.183   2.805   0.242
 1761SOL    HW1 5292   2.265   2.844   0.200
 1761SOL    HW2 5293   2.156   2.723   0.193
 1762SOL     OW 5294   3.320   2.597   0.728
 1762SOL    HW1 5295   3.315   2.532   0.803
 1762SOL    HW2 5296   3.400   2.656   0.741
 1763SOL     OW 5297   2.323   3.128   1.727
 1763SOL    HW1 5298   2.273   3.129   1.641
 1763SOL    HW2 5299   2.260   3.110   1.803
 1764SOL     OW 5300   2.973   3.638   0.237
 1764SOL    HW1 5301   2.913   3.576   0.287
 1764SOL    HW2 5302   3.004   3.594   0.152
 1765SOL     OW 5303   2.064   2.147   1.498
 1765SOL    HW1 5304   1.984   2.207   1.485
 1765SOL    HW2 5305   2.054   2.098   1.584
 1766SOL     OW 5306   3.494   3.239   0.081
 1766SOL    HW1 5307   3.462   3.333   0.071
 1766SOL    HW2 5308   3.418   3.176   0.069
 1767SOL     OW 5309   2.326   3.605   0.323
 1767SOL    HW1 5310   2.359   3.644   0.409
 1767SOL    HW2 5311   2.402   3.598   0.258
 1768SOL     OW 5312   3.262   1.969   0.426
 1768SOL    HW1 5313   3.238   1.932   0.336
 1768SOL    HW2 5314   3.361   1.985   0.430
 1769SOL     OW 5315   2.111   3.647   1.241
 1769SOL    HW1 5316   2.168   3.582   1.291
 1769SOL    HW2 5317   2.095   3.614   1.148
 1770SOL     OW 5318   2.802   3.560   0.904
 1770SOL    HW1 5319   2.882   3.503   0.925
 1770SOL    HW2 5320   2.753   3.520   0.827
 1771SOL     OW 5321   2.244   2.562   0.480
 1771SOL    HW1 5322   2.289   2.472   0.477
 1771SOL    HW2 5323   2.150   2.551   0.513
 1772SOL     OW 5324   3.409   2.084   1.729
 1772SOL    HW1 5325   3.404   2.121   1.821
 1772SOL    HW2 5326   3.337   2.015   1.717
 1773SOL     OW 5327   2.476   1.984   0.117
 1773SOL    HW1 5328   2.574   1.962   0.124
 1773SOL    HW2 5329   2.445   1.967   0.024
 1774SOL     OW 5330   2.643   2.126   1.749
 1774SOL    HW1 5331   2.710   2.065   1.792
 1774SOL    HW2 5332   2.570   2.145   1.814
 1775SOL     OW 5333   2.750   3.376   1.195
 1775SOL    HW1 5334   2.727   3.351   1.101
 1775SOL    HW2 5335   2.811   3.307   1.234
 1776SOL     OW 5336   3.213   2.452   1.433
 1776SOL    HW1 5337   3.241   2.409   1.518
 1776SOL    HW2 5338   3.238   2.548   1.434
 1777SOL     OW 5339   2.665   3.264   0.924
 1777SOL    HW1 5340   2.755   3.278   0.882
 1777SOL    HW2 5341   2.594   3.266   0.853
 1778SOL     OW 5342   2.784   2.365   0.899
 1778SOL    HW1 5343   2.759   2.356   0.803
 1778SOL    HW2 5344   2.832   2.283   0.930
 1779SOL     OW 5345   2.401   1.926   0.512
 1779SOL    HW1 5346   2.320   1.927   0.570
 1779SOL    HW2 5347   2.404   2.009   0.457
 1780SOL     OW 5348   3.296   3.050   0.041
 1780SOL    HW1 5349   3.328   2.974   0.098
 1780SOL    HW2 5350   3.204   3.077   0.071
 1781SOL     OW 5351   2.797   2.098   0.480
 1781SOL    HW1 5352   2.749   2.139   0.402
 1781SOL    HW2 5353   2.896   2.096   0.461
 1782SOL     OW 5354   2.938   2.545   1.464
 1782SOL    HW1 5355   2.858   2.484   1.467
 1782SOL    HW2 5356   3.019   2.492   1.440
 1783SOL     OW 5357   3.089   3.432   0.793
 1783SOL    HW1 5358   3.110   3.506   0.728
 1783SOL    HW2 5359   3.157   3.432   0.866
 1784SOL     OW 5360   2.321   3.014   0.741
 1784SOL    HW1 5361   2.250   2.987   0.806
 1784SOL    HW2 5362   2.295   2.986   0.648
 1785SOL     OW 5363   3.133   3.659   0.591
 1785SOL    HW1 5364   3.177   3.723   0.527
 1785SOL    HW2 5365   3.083   3.711   0.661
 1786SOL     OW 5366   2.894   2.411   0.016
 1786SOL    HW1 5367   2.853   2.493  -0.023
 1786SOL    HW2 5368   2.958   2.437   0.089
 1787SOL     OW 5369   1.940   2.418   1.386
 1787SOL    HW1 5370   2.032   2.417   1.345
 1787SOL    HW2 5371   1.934   2.492   1.453
 1788SOL     OW 5372   2.423   2.084   1.147
 1788SOL    HW1 5373   2.461   2.000   1.184
 1788SOL    HW2 5374   2.335   2.103   1.191
 1789SOL     OW 5375   2.728   2.316   0.642
 1789SOL    HW1 5376   2.696   2.388   0.580
 1789SOL    HW2 5377   2.752   2.235   0.589
 1790SOL     OW 5378   2.879   1.901   0.753
 1790SOL    HW1 5379   2.807   1.906   0.684
 1790SOL    HW2 5380   2.855   1.832   0.822
 1791SOL     OW 5381   3.291   3.035   0.867
 1791SOL    HW1 5382   3.236   2.951   0.860
 1791SOL    HW2 5383   3.317   3.064   0.775
 1792SOL     OW 5384   3.328   2.452   0.992
 1792SOL    HW1 5385   3.298   2.357   0.999
 1792SOL    HW2 5386   3.401   2.468   1.058
 1793SOL     OW 5387   3.719   2.695   0.377
 1793SOL    HW1 5388   3.761   2.631   0.441
 1793SOL    HW2 5389   3.681   2.644   0.299
 1794SOL     OW 5390   2.350   3.247   0.174
 1794SOL    HW1 5391   2.263   3.232   0.221
 1794SOL    HW2 5392   2.333   3.273   0.079
 1795SOL     OW 5393   3.526   3.142   0.657
 1795SOL    HW1 5394   3.625   3.150   0.671
 1795SOL    HW2 5395   3.481   3.226   0.688
 1796SOL     OW 5396   3.252   2.437   0.078
 1796SOL    HW1 5397   3.198   2.416   0.159
 1796SOL    HW2 5398   3.343   2.396   0.087
 1797SOL     OW 5399   2.389   2.118   0.328
 1797SOL    HW1 5400   2.416   2.059   0.253
 1797SOL    HW2 5401   2.389   2.213   0.297
 1798SOL     OW 5402   3.616   3.085   1.588
 1798SOL    HW1 5403   3.707   3.046   1.575
 1798SOL    HW2 5404   3.624   3.181   1.612
 1799SOL     OW 5405   2.926   3.209   1.340
 1799SOL    HW1 5406   2.846   3.186   1.395
 1799SOL    HW2 5407   3.009   3.183   1.389
 1800SOL     OW 5408   3.454   3.491   1.625
 1800SOL    HW1 5409   3.481   3.525   1.535
 1800SOL    HW2 5410   3.533   3.453   1.671
 1801SOL     OW 5411   2.973   3.057   1.100
 1801SOL    HW1 5412   2.933   3.101   1.181
 1801SOL    HW2 5413   2.932   3.094   1.017
 1802SOL     OW 5414   3.500   2.961   1.079
 1802SOL    HW1 5415   3.505   3.042   1.138
 1802SOL    HW2 5416   3.414   2.963   1.028
 1803SOL     OW 5417   2.777   1.951   1.402
 1803SOL    HW1 5418   2.802   1.931   1.307
 1803SOL    HW2 5419   2.849   2.007   1.444
 1804SOL     OW 5420   2.842   2.978   1.719
 1804SOL    HW1 5421   2.743   2.984   1.729
 1804SOL    HW2 5422   2.865   2.898   1.663
 1805SOL     OW 5423   2.567   2.912   0.368
 1805SOL    HW1 5424   2.553   2.919   0.467
 1805SOL    HW2 5425   2.651   2.861   0.350
 1806SOL     OW 5426   2.272   2.675   1.251
 1806SOL    HW1 5427   2.358   2.687   1.301
 1806SOL    HW2 5428   2.230   2.588   1.278
 1807SOL     OW 5429   3.136   2.248   1.262
 1807SOL    HW1 5430   3.157   2.322   1.326
 1807SOL    HW2 5431   3.047   2.265   1.219
 1808SOL     OW 5432   1.926   3.426   1.331
 1808SOL    HW1 5433   1.880   3.508   1.297
 1808SOL    HW2 5434   2.024   3.445   1.340
 1809SOL     OW 5435   2.229   2.962   0.501
 1809SOL    HW1 5436   2.222   3.045   0.445
 1809SOL    HW2 5437   2.233   2.882   0.441
 1810SOL     OW 5438   2.428   2.399   0.865
 1810SOL    HW1 5439   2.440   2.465   0.791
 1810SOL    HW2 5440   2.474   2.433   0.948
 1811SOL     OW 5441   3.114   3.210   0.388
 1811SOL    HW1 5442   3.164   3.287   0.428
 1811SOL    HW2 5443   3.019   3.212   0.420
 1812SOL     OW 5444   3.134   3.307   1.142
 1812SOL    HW1 5445   3.181   3.320   1.229
 1812SOL    HW2 5446   3.068   3.233   1.151
 1813SOL     OW 5447   3.444   2.501   0.472
 1813SOL    HW1 5448   3.413   2.562   0.545
 1813SOL    HW2 5449   3.494   2.553   0.403
 1814SOL     OW 5450   2.216   3.372   1.329
 1814SOL    HW1 5451   2.195   3.328   1.242
 1814SOL    HW2 5452   2.313   3.398   1.332
 1815SOL     OW 5453   2.264   2.613   1.598
 1815SOL    HW1 5454   2.332   2.668   1.551
 1815SOL    HW2 5455   2.304   2.525   1.625
 1816SOL     OW 5456   3.449   2.641   1.670
 1816SOL    HW1 5457   3.357   2.679   1.665
 1816SOL    HW2 5458   3.509   2.688   1.605
 1817SOL     OW 5459   2.875   1.967   1.770
 1817SOL    HW1 5460   2.881   2.052   1.718
 1817SOL    HW2 5461   2.907   1.891   1.713
 1818SOL     OW 5462   2.366   1.912   1.740
 1818SOL    HW1 5463   2.324   1.855   1.670
 1818SOL    HW2 5464   2.300   1.981   1.772
 1819SOL     OW 5465   2.435   2.732   1.029
 1819SOL    HW1 5466   2.479   2.821   1.020
 1819SOL    HW2 5467   2.372   2.732   1.106
 1820SOL     OW 5468   3.222   2.724   1.045
 1820SOL    HW1 5469   3.147   2.724   0.979
 1820SOL    HW2 5470   3.259   2.632   1.054
 1821SOL     OW 5471   3.071   2.387   0.275
 1821SOL    HW1 5472   3.084   2.303   0.329
 1821SOL    HW2 5473   3.042   2.461   0.335
 1822SOL     OW 5474   2.169   2.075   1.231
 1822SOL    HW1 5475   2.146   2.112   1.321
 1822SOL    HW2 5476   2.139   1.980   1.225
 1823SOL     OW 5477   1.899   3.172   1.282
 1823SOL    HW1 5478   1.952   3.123   1.350
 1823SOL    HW2 5479   1.921   3.270   1.287
 1824SOL     OW 5480   2.594   2.496   1.064
 1824SOL    HW1 5481   2.653   2.470   0.988
 1824SOL    HW2 5482   2.566   2.592   1.053
 1825SOL     OW 5483   3.590   2.797   1.854
 1825SOL    HW1 5484   3.544   2.790   1.765
 1825SOL    HW2 5485   3.528   2.841   1.920
 1826SOL     OW 5486   2.169   1.925   0.618
 1826SOL    HW1 5487   2.158   2.019   0.651
 1826SOL    HW2 5488   2.164   1.862   0.695
 1827SOL     OW 5489   3.484   2.229   0.374
 1827SOL    HW1 5490   3.486   2.153   0.438
 1827SOL    HW2 5491   3.436   2.306   0.414
 1828SOL     OW 5492   2.885   2.628   0.966
 1828SOL    HW1 5493   2.900   2.649   1.062
 1828SOL    HW2 5494   2.855   2.533   0.957
 1829SOL     OW 5495   2.842   3.435   1.700
 1829SOL    HW1 5496   2.822   3.479   1.612
 1829SOL    HW2 5497   2.881   3.344   1.684
 1830SOL     OW 5498   3.721   3.380   1.605
 1830SOL    HW1 5499   3.735   3.407   1.510
 1830SOL    HW2 5500   3.804   3.402   1.658
 1831SOL     OW 5501   2.212   2.760   1.804
 1831SOL    HW1 5502   2.288   2.804   1.852
 1831SOL    HW2 5503   2.247   2.713   1.722
 1832SOL     OW 5504   3.402   2.136   0.125
 1832SOL    HW1 5505   3.341   2.061   0.148
 1832SOL    HW2 5506   3.424   2.188   0.208
 1833SOL     OW 5507   3.165   2.700   0.042
 1833SOL    HW1 5508   3.199   2.607   0.057
 1833SOL    HW2 5509   3.183   2.727  -0.053
 1834SOL     OW 5510   2.930   3.195   0.849
 1834SOL    HW1 5511   2.937   3.111   0.794
 1834SOL    HW2 5512   2.992   3.264   0.813
 1835SOL     OW 5513   2.181   2.672   0.949
 1835SOL    HW1 5514   2.274   2.708   0.954
 1835SOL    HW2 5515   2.175   2.587   1.001
 1836SOL     OW 5516   2.201   2.371   1.006
 1836SOL    HW1 5517   2.149   2.288   0.989
 1836SOL    HW2 5518   2.278   2.376   0.942
 1837SOL     OW 5519   3.000   2.242   1.678
 1837SOL    HW1 5520   2.955   2.305   1.742
 1837SOL    HW2 5521   3.093   2.273   1.661
 1838SOL     OW 5522   3.022   2.069   1.477
 1838SOL    HW1 5523   3.022   2.133   1.554
 1838SOL    HW2 5524   3.050   2.117   1.394
 1839SOL     OW 5525   1.870   3.188   0.200
 1839SOL    HW1 5526   1.777   3.209   0.169
 1839SOL    HW2 5527   1.880   3.089   0.213
 1840SOL     OW 5528   1.950   3.663   0.927
 1840SOL    HW1 5529   1.908   3.577   0.900
 1840SOL    HW2 5530   2.044   3.666   0.893
 1841SOL     OW 5531   2.366   3.430   0.910
 1841SOL    HW1 5532   2.432   3.504   0.919
 1841SOL    HW2 5533   2.410   3.351   0.868
 1842SOL     OW 5534   2.864   2.658   1.238
 1842SOL    HW1 5535   2.905   2.626   1.324
 1842SOL    HW2 5536   2.768   2.631   1.235
 1843SOL     OW 5537   1.902   2.406   1.114
 1843SOL    HW1 5538   1.987   2.373   1.073
 1843SOL    HW2 5539   1.915   2.421   1.212
 1844SOL     OW 5540   2.051   2.382   1.722
 1844SOL    HW1 5541   2.110   2.342   1.652
 1844SOL    HW2 5542   1.993   2.453   1.681
 1845SOL     OW 5543   3.231   2.812   1.660
 1845SOL    HW1 5544   3.270   2.901   1.680
 1845SOL    HW2 5545   3.241   2.792   1.563
 1846SOL     OW 5546   2.677   2.434   0.325
 1846SOL    HW1 5547   2.684   2.345   0.279
 1846SOL    HW2 5548   2.583   2.468   0.317
 1847SOL     OW 5549   3.519   2.466   1.206
 1847SOL    HW1 5550   3.481   2.397   1.268
 1847SOL    HW2 5551   3.601   2.430   1.162
 1848SOL     OW 5552   2.114   3.426   1.744
 1848SOL    HW1 5553   2.084   3.483   1.820
 1848SOL    HW2 5554   2.107   3.329   1.770
 1849SOL     OW 5555   2.533   2.326   1.269
 1849SOL    HW1 5556   2.499   2.237   1.239
 1849SOL    HW2 5557   2.559   2.380   1.189
 1850SOL     OW 5558   2.792   3.540   1.465
 1850SOL    HW1 5559   2.768   3.522   1.370
 1850SOL    HW2 5560   2.822   3.634   1.475
 1851SOL     OW 5561   2.335   2.362   0.191
 1851SOL    HW1 5562   2.396   2.442   0.195
 1851SOL    HW2 5563   2.240   2.393   0.198
 1852SOL     OW 5564   2.021   2.999   1.466
 1852SOL    HW1 5565   2.043   2.938   1.542
 1852SOL    HW2 5566   2.031   2.950   1.380
 1853SOL     OW 5567   3.209   2.921   1.234
 1853SOL    HW1 5568   3.233   2.858   1.160
 1853SOL    HW2 5569   3.119   2.961   1.216
 1854SOL     OW 5570   3.164   2.717   0.309
 1854SOL    HW1 5571   3.078   2.686   0.351
 1854SOL    HW2 5572   3.160   2.703   0.210
 1855SOL     OW 5573   3.621   3.609   1.154
 1855SOL    HW1 5574   3.682   3.639   1.081
 1855SOL    HW2 5575   3.583   3.520   1.132
 1856SOL     OW 5576   3.114   3.593   1.128
 1856SOL    HW1 5577   3.198   3.598   1.074
 1856SOL    HW2 5578   3.091   3.497   1.146
 1857SOL     OW 5579   1.945   3.120   1.022
 1857SOL    HW1 5580   1.940   3.119   1.122
 1857SOL    HW2 5581   1.862   3.079   0.984
 1858SOL     OW 5582   2.550   3.524   1.716
 1858SOL    HW1 5583   2.494   3.605   1.725
 1858SOL    HW2 5584   2.602   3.528   1.630
 1859SOL     OW 5585   2.765   1.948   0.133
 1859SOL    HW1 5586   2.816   1.949   0.047
 1859SOL    HW2 5587   2.821   1.906   0.204
 1860SOL     OW 5588   3.588   1.997   0.523
 1860SOL    HW1 5589   3.661   1.980   0.456
 1860SOL    HW2 5590   3.557   1.910   0.561
 1861SOL     OW 5591   3.250   3.435   0.477
 1861SOL    HW1 5592   3.317   3.447   0.403
 1861SOL    HW2 5593   3.210   3.524   0.500
 1862SOL     OW 5594   1.992   3.656   1.851
 1862SOL    HW1 5595   1.951   3.582   1.904
 1862SOL    HW2 5596   2.056   3.707   1.909
 1863SOL     OW 5597   3.142   2.789   0.672
 1863SOL    HW1 5598   3.202   2.708   0.674
 1863SOL    HW2 5599   3.182   2.858   0.612
 1864SOL     OW 5600   2.692   3.135   1.422
 1864SOL    HW1 5601   2.687   3.168   1.517
 1864SOL    HW2 5602   2.606   3.154   1.376
 1865SOL     OW 5603   2.534   3.478   0.154
 1865SOL    HW1 5604   2.543   3.488   0.055
 1865SOL    HW2 5605   2.494   3.389   0.175
 1866SOL     OW 5606   3.512   3.582   1.394
 1866SOL    HW1 5607   3.565   3.592   1.310
 1866SOL    HW2 5608   3.485   3.672   1.428
 1867SOL     OW 5609   3.703   2.037   0.963
 1867SOL    HW1 5610   3.742   1.952   0.927
 1867SOL    HW2 5611   3.605   2.039   0.944
 1868SOL     OW 5612   2.125   2.188   0.720
 1868SOL    HW1 5613   2.046   2.239   0.686
 1868SOL    HW2 5614   2.116   2.173   0.818
 1869SOL     OW 5615   3.056   3.474   0.031
 1869SOL    HW1 5616   3.062   3.381   0.068
 1869SOL    HW2 5617   2.997   3.474  -0.049
 1870SOL     OW 5618   2.684   2.864   1.372
 1870SOL    HW1 5619   2.724   2.863   1.280
 1870SOL    HW2 5620   2.694   2.956   1.412
 1871SOL     OW 5621   2.778   2.772   0.291
 1871SOL    HW1 5622   2.841   2.810   0.223
 1871SOL    HW2 5623   2.818   2.689   0.330
 1872SOL     OW 5624   3.366   3.469   0.044
 1872SOL    HW1 5625   3.274   3.506   0.051
 1872SOL    HW2 5626   3.404   3.489  -0.046
 1873SOL     OW 5627   2.234   3.150   1.490
 1873SOL    HW1 5628   2.221   3.243   1.456
 1873SOL    HW2 5629   2.150   3.098   1.477
 1874SOL     OW 5630   3.476   3.154   1.289
 1874SOL    HW1 5631   3.536   3.157   1.369
 1874SOL    HW2 5632   3.401   3.218   1.302
 1875SOL     OW 5633   2.901   2.960   0.696
 1875SOL    HW1 5634   2.831   2.913   0.750
 1875SOL    HW2 5635   2.960   2.892   0.653
 1876SOL     OW 5636   2.876   2.098   0.971
 1876SOL    HW1 5637   2.868   2.062   0.878
 1876SOL    HW2 5638   2.874   2.022   1.036
 1877SOL     OW 5639   2.452   3.349   0.491
 1877SOL    HW1 5640   2.494   3.291   0.421
 1877SOL    HW2 5641   2.408   3.428   0.447
 1878SOL     OW 5642   3.571   2.247   1.381
 1878SOL    HW1 5643   3.644   2.316   1.385
 1878SOL    HW2 5644   3.599   2.172   1.322
 1879SOL     OW 5645   2.117   3.210   0.290
 1879SOL    HW1 5646   2.021   3.211   0.263
 1879SOL    HW2 5647   2.129   3.263   0.374
 1880SOL     OW 5648   1.967   2.875   1.726
 1880SOL    HW1 5649   1.890   2.842   1.780
 1880SOL    HW2 5650   2.052   2.845   1.768
 1881SOL     OW 5651   2.534   2.065   1.489
 1881SOL    HW1 5652   2.624   2.049   1.449
 1881SOL    HW2 5653   2.542   2.070   1.588
 1882SOL     OW 5654   1.937   2.207   0.033
 1882SOL    HW1 5655   1.845   2.179   0.004
 1882SOL    HW2 5656   1.968   2.284  -0.023
 1883SOL     OW 5657   3.302   2.718   1.398
 1883SOL    HW1 5658   3.245   2.770   1.335
 1883SOL    HW2 5659   3.398   2.730   1.374
 1884SOL     OW 5660   3.045   3.197   0.119
 1884SOL    HW1 5661   2.946   3.186   0.121
 1884SOL    HW2 5662   3.079   3.212   0.212
 1885SOL     OW 5663   2.475   2.704   1.431
 1885SOL    HW1 5664   2.531   2.785   1.414
 1885SOL    HW2 5665   2.534   2.624   1.434
 1886SOL     OW 5666   3.355   3.629   0.959
 1886SOL    HW1 5667   3.388   3.693   0.890
 1886SOL    HW2 5668   3.421   3.623   1.034
 1887SOL     OW 5669   2.578   2.427   1.708
 1887SOL    HW1 5670   2.597   2.492   1.782
 1887SOL    HW2 5671   2.638   2.347   1.717
 1888SOL     OW 5672   3.312   3.082   1.633
 1888SOL    HW1 5673   3.303   3.072   1.732
 1888SOL    HW2 5674   3.408   3.075   1.607
 1889SOL     OW 5675   2.252   3.603   1.560
 1889SOL    HW1 5676   2.161   3.644   1.558
 1889SOL    HW2 5677   2.245   3.509   1.592
 1890SOL     OW 5678   3.536   2.745   1.254
 1890SOL    HW1 5679   3.509   2.656   1.217
 1890SOL    HW2 5680   3.537   2.813   1.181
 1891SOL     OW 5681   3.087   2.187   0.449
 1891SOL    HW1 5682   3.152   2.113   0.438
 1891SOL    HW2 5683   3.107   2.237   0.533
 1892SOL     OW 5684   2.456   2.607   0.652
 1892SOL    HW1 5685   2.506   2.692   0.633
 1892SOL    HW2 5686   2.368   2.609   0.604
 1893SOL     OW 5687   3.639   2.204   1.642
 1893SOL    HW1 5688   3.622   2.235   1.548
 1893SOL    HW2 5689   3.555   2.167   1.680
 1894SOL     OW 5690   3.592   2.796   1.517
 1894SOL    HW1 5691   3.630   2.887   1.532
 1894SOL    HW2 5692   3.584   2.779   1.418
 1895SOL     OW 5693   2.721   3.236   0.016
 1895SOL    HW1 5694   2.675   3.251   0.104
 1895SOL    HW2 5695   2.765   3.321  -0.014
 1896SOL     OW 5696   2.523   3.652   0.953
 1896SOL    HW1 5697   2.477   3.740   0.940
 1896SOL    HW2 5698   2.622   3.664   0.946
 1897SOL     OW 5699   2.721   2.818   0.861
 1897SOL    HW1 5700   2.775   2.749   0.909
 1897SOL    HW2 5701   2.689   2.887   0.927
 1898SOL     OW 5702   2.945   2.846   0.087
 1898SOL    HW1 5703   2.922   2.899   0.005
 1898SOL    HW2 5704   3.026   2.790   0.068
 1899SOL     OW 5705   3.723   3.431   0.851
 1899SOL    HW1 5706   3.652   3.419   0.781
 1899SOL    HW2 5707   3.724   3.352   0.911
 1900SOL     OW 5708   2.083   3.176   1.844
 1900SOL    HW1 5709   2.018   3.103   1.823
 1900SOL    HW2 5710   2.087   3.190   1.942
 1901SOL     OW 5711   1.941   3.102   0.653
 1901SOL    HW1 5712   1.940   3.055   0.741
 1901SOL    HW2 5713   2.023   3.074   0.602
 1902SOL     OW 5714   2.534   3.253   1.624
 1902SOL    HW1 5715   2.456   3.203   1.662
 1902SOL    HW2 5716   2.531   3.348   1.655
 1903SOL     OW 5717   3.686   2.054   1.227
 1903SOL    HW1 5718   3.682   1.964   1.271
 1903SOL    HW2 5719   3.689   2.043   1.128
 1904SOL     OW 5720   2.290   2.286   0.520
 1904SOL    HW1 5721   2.320   2.214   0.458
 1904SOL    HW2 5722   2.251   2.246   0.603
 1905SOL     OW 5723   3.567   3.349   1.104
 1905SOL    HW1 5724   3.474   3.324   1.077
 1905SOL    HW2 5725   3.593   3.299   1.186
 1906SOL     OW 5726   2.179   2.409   1.280
 1906SOL    HW1 5727   2.217   2.350   1.352
 1906SOL    HW2 5728   2.219   2.383   1.192
 1907SOL     OW 5729   2.674   3.448   0.687
 1907SOL    HW1 5730   2.706   3.458   0.593
 1907SOL    HW2 5731   2.595   3.386   0.689
 1908SOL     OW 5732   3.286   2.076   1.112
 1908SOL    HW1 5733   3.338   2.011   1.167
 1908SOL    HW2 5734   3.237   2.139   1.173
 1909SOL     OW 5735   2.863   1.896   1.154
 1909SOL    HW1 5736   2.800   1.824   1.123
 1909SOL    HW2 5737   2.956   1.860   1.154
 1910SOL     OW 5738   2.632   3.192   0.301
 1910SOL    HW1 5739   2.586   3.105   0.318
 1910SOL    HW2 5740   2.723   3.189   0.342
 1911SOL     OW 5741   2.480   3.429   1.284
 1911SOL    HW1 5742   2.475   3.511   1.341
 1911SOL    HW2 5743   2.569   3.426   1.239
 1912SOL     OW 5744   3.214   1.914   0.168
 1912SOL    HW1 5745   3.249   1.873   0.084
 1912SOL    HW2 5746   3.124   1.876   0.188
 1913SOL     OW 5747   3.162   2.315   0.691
 1913SOL    HW1 5748   3.103   2.395   0.695
 1913SOL    HW2 5749   3.177   2.280   0.784
 1914SOL     OW 5750   3.455   2.083   0.882
 1914SOL    HW1 5751   3.371   2.082   0.936
 1914SOL    HW2 5752   3.457   2.166   0.826
 1915SOL     OW 5753   1.901   2.939   0.300
 1915SOL    HW1 5754   2.000   2.928   0.291
 1915SOL    HW2 5755   1.861   2.853   0.332
 1916SOL     OW 5756   2.737   3.508   0.337
 1916SOL    HW1 5757   2.660   3.473   0.283
 1916SOL    HW2 5758   2.705   3.579   0.399
 1917SOL     OW 5759   2.092   2.490   1.975
 1917SOL    HW1 5760   1.999   2.488   2.012
 1917SOL    HW2 5761   2.093   2.451   1.883
 1918SOL     OW 5762   2.087   2.137   2.858
 1918SOL    HW1 5763   2.122   2.120   2.950
 1918SOL    HW2 5764   1.999   2.092   2.846
 1919SOL     OW 5765   1.881   2.230   2.509
 1919SOL    HW1 5766   1.799   2.273   2.548
 1919SOL    HW2 5767   1.853   2.157   2.446
 1920SOL     OW 5768   2.431   3.137   3.027
 1920SOL    HW1 5769   2.338   3.130   2.990
 1920SOL    HW2 5770   2.442   3.226   3.071
 1921SOL     OW 5771   3.417   3.373   2.565
 1921SOL    HW1 5772   3.360   3.357   2.646
 1921SOL    HW2 5773   3.358   3.383   2.485
 1922SOL     OW 5774   2.997   2.565   2.579
 1922SOL    HW1 5775   3.054   2.643   2.554
 1922SOL    HW2 5776   2.937   2.591   2.655
 1923SOL     OW 5777   3.617   2.469   2.093
 1923SOL    HW1 5778   3.605   2.456   1.994
 1923SOL    HW2 5779   3.587   2.388   2.142
 1924SOL     OW 5780   2.630   3.006   2.885
 1924SOL    HW1 5781   2.552   3.023   2.945
 1924SOL    HW2 5782   2.664   3.093   2.849
 1925SOL     OW 5783   2.712   2.660   3.685
 1925SOL    HW1 5784   2.708   2.736   3.750
 1925SOL    HW2 5785   2.734   2.696   3.594
 1926SOL     OW 5786   2.547   2.874   2.527
 1926SOL    HW1 5787   2.616   2.858   2.597
 1926SOL    HW2 5788   2.474   2.931   2.565
 1927SOL     OW 5789   2.548   3.023   3.665
 1927SOL    HW1 5790   2.608   3.102   3.679
 1927SOL    HW2 5791   2.462   3.054   3.624
 1928SOL     OW 5792   2.197   3.297   2.923
 1928SOL    HW1 5793   2.119   3.266   2.870
 1928SOL    HW2 5794   2.255   3.355   2.866
 1929SOL     OW 5795   3.322   3.367   3.201
 1929SOL    HW1 5796   3.346   3.461   3.227
 1929SOL    HW2 5797   3.306   3.313   3.283
 1930SOL     OW 5798   2.300   2.254   3.361
 1930SOL    HW1 5799   2.382   2.198   3.370
 1930SOL    HW2 5800   2.219   2.196   3.365
 1931SOL     OW 5801   3.465   2.309   2.599
 1931SOL    HW1 5802   3.391   2.355   2.549
 1931SOL    HW2 5803   3.516   2.377   2.652
 1932SOL     OW 5804   2.093   3.575   2.345
 1932SOL    HW1 5805   2.127   3.652   2.399
 1932SOL    HW2 5806   2.137   3.575   2.255
 1933SOL     OW 5807   2.989   3.203   3.552
 1933SOL    HW1 5808   3.036   3.203   3.640
 1933SOL    HW2 5809   2.941   3.116   3.541
 1934SOL     OW 5810   2.092   3.296   2.400
 1934SOL    HW1 5811   2.066   3.392   2.400
 1934SOL    HW2 5812   2.021   3.242   2.445
 1935SOL     OW 5813   2.102   2.953   2.748
 1935SOL    HW1 5814   2.116   2.869   2.800
 1935SOL    HW2 5815   2.047   3.017   2.803
 1936SOL     OW 5816   2.482   3.648   3.301
 1936SOL    HW1 5817   2.390   3.631   3.336
 1936SOL    HW2 5818   2.510   3.740   3.327
 1937SOL     OW 5819   2.468   2.826   1.985
 1937SOL    HW1 5820   2.475   2.910   1.931
 1937SOL    HW2 5821   2.514   2.839   2.073
 1938SOL     OW 5822   3.456   1.976   3.342
 1938SOL    HW1 5823   3.438   2.043   3.270
 1938SOL    HW2 5824   3.453   2.022   3.431
 1939SOL     OW 5825   1.984   2.505   2.425
 1939SOL    HW1 5826   1.939   2.417   2.442
 1939SOL    HW2 5827   1.983   2.559   2.509
 1940SOL     OW 5828   3.704   3.629   2.221
 1940SOL    HW1 5829   3.758   3.600   2.301
 1940SOL    HW2 5830   3.734   3.719   2.192
 1941SOL     OW 5831   1.889   3.458   1.979
 1941SOL    HW1 5832   1.870   3.362   2.000
 1941SOL    HW2 5833   1.856   3.516   2.054
 1942SOL     OW 5834   3.551   2.784   2.474
 1942SOL    HW1 5835   3.646   2.755   2.482
 1942SOL    HW2 5836   3.543   2.849   2.399
 1943SOL     OW 5837   3.503   2.970   2.294
 1943SOL    HW1 5838   3.589   2.972   2.242
 1943SOL    HW2 5839   3.517   3.017   2.382
 1944SOL     OW 5840   1.975   2.599   3.459
 1944SOL    HW1 5841   2.063   2.586   3.504
 1944SOL    HW2 5842   1.962   2.696   3.437
 1945SOL     OW 5843   2.475   3.227   2.588
 1945SOL    HW1 5844   2.426   3.140   2.597
 1945SOL    HW2 5845   2.452   3.270   2.501
 1946SOL     OW 5846   3.155   3.090   3.285
 1946SOL    HW1 5847   3.192   3.017   3.227
 1946SOL    HW2 5848   3.207   3.095   3.370
 1947SOL     OW 5849   2.671   1.866   2.364
 1947SOL    HW1 5850   2.711   1.957   2.355
 1947SOL    HW2 5851   2.571   1.874   2.370
 1948SOL     OW 5852   2.059   2.838   3.126
 1948SOL    HW1 5853   2.148   2.793   3.112
 1948SOL    HW2 5854   1.986   2.773   3.107
 1949SOL     OW 5855   3.387   2.861   2.052
 1949SOL    HW1 5856   3.324   2.785   2.065
 1949SOL    HW2 5857   3.435   2.879   2.138
 1950SOL     OW 5858   3.049   3.654   3.478
 1950SOL    HW1 5859   3.073   3.714   3.402
 1950SOL    HW2 5860   3.056   3.559   3.448
 1951SOL     OW 5861   2.179   2.113   3.663
 1951SOL    HW1 5862   2.250   2.184   3.669
 1951SOL    HW2 5863   2.091   2.152   3.691
 1952SOL     OW 5864   3.328   3.279   2.815
 1952SOL    HW1 5865   3.269   3.285   2.895
 1952SOL    HW2 5866   3.313   3.191   2.769
 1953SOL     OW 5867   3.529   3.576   2.434
 1953SOL    HW1 5868   3.488   3.553   2.346
 1953SOL    HW2 5869   3.511   3.502   2.499
 1954SOL     OW 5870   2.460   2.591   2.132
 1954SOL    HW1 5871   2.484   2.660   2.064
 1954SOL    HW2 5872   2.382   2.624   2.186
 1955SOL     OW 5873   3.143   2.207   2.806
 1955SOL    HW1 5874   3.057   2.157   2.793
 1955SOL    HW2 5875   3.205   2.153   2.862
 1956SOL     OW 5876   3.438   3.524   2.169
 1956SOL    HW1 5877   3.527   3.570   2.172
 1956SOL    HW2 5878   3.417   3.500   2.074
 1957SOL     OW 5879   2.669   2.467   3.327
 1957SOL    HW1 5880   2.622   2.464   3.416
 1957SOL    HW2 5881   2.618   2.412   3.261
 1958SOL     OW 5882   3.256   2.331   3.536
 1958SOL    HW1 5883   3.236   2.374   3.624
 1958SOL    HW2 5884   3.334   2.269   3.545
 1959SOL     OW 5885   2.835   2.752   3.434
 1959SOL    HW1 5886   2.881   2.668   3.405
 1959SOL    HW2 5887   2.779   2.786   3.359
 1960SOL     OW 5888   2.853   2.272   3.104
 1960SOL    HW1 5889   2.776   2.306   3.158
 1960SOL    HW2 5890   2.819   2.221   3.025
 1961SOL     OW 5891   2.903   2.563   2.291
 1961SOL    HW1 5892   2.929   2.559   2.387
 1961SOL    HW2 5893   2.818   2.512   2.277
 1962SOL     OW 5894   1.938   2.673   2.651
 1962SOL    HW1 5895   2.037   2.661   2.660
 1962SOL    HW2 5896   1.914   2.768   2.672
 1963SOL     OW 5897   1.992   3.683   3.433
 1963SOL    HW1 5898   1.982   3.668   3.532
 1963SOL    HW2 5899   1.906   3.719   3.397
 1964SOL     OW 5900   2.727   2.210   2.057
 1964SOL    HW1 5901   2.786   2.273   2.008
 1964SOL    HW2 5902   2.746   2.116   2.028
 1965SOL     OW 5903   3.581   2.447   3.693
 1965SOL    HW1 5904   3.555   2.536   3.657
 1965SOL    HW2 5905   3.579   2.379   3.620
 1966SOL     OW 5906   3.224   3.006   2.407
 1966SOL    HW1 5907   3.307   2.977   2.359
 1966SOL    HW2 5908   3.175   3.073   2.351
 1967SOL     OW 5909   2.412   2.058   2.747
 1967SOL    HW1 5910   2.407   2.053   2.847
 1967SOL    HW2 5911   2.414   2.154   2.718
 1968SOL     OW 5912   2.870   3.318   2.339
 1968SOL    HW1 5913   2.824   3.390   2.287
 1968SOL    HW2 5914   2.866   3.338   2.437
 1969SOL     OW 5915   2.213   3.663   2.715
 1969SOL    HW1 5916   2.263   3.577   2.721
 1969SOL    HW2 5917   2.278   3.740   2.712
 1970SOL     OW 5918   3.657   2.928   2.735
 1970SOL    HW1 5919   3.595   2.913   2.659
 1970SOL    HW2 5920   3.605   2.939   2.820
 1971SOL     OW 5921   3.089   3.412   3.368
 1971SOL    HW1 5922   3.095   3.335   3.432
 1971SOL    HW2 5923   3.037   3.386   3.288
 1972SOL     OW 5924   2.183   2.805   2.104
 1972SOL    HW1 5925   2.265   2.844   2.062
 1972SOL    HW2 5926   2.156   2.723   2.055
 1973SOL     OW 5927   3.320   2.597   2.590
 1973SOL    HW1 5928   3.315   2.532   2.665
 1973SOL    HW2 5929   3.400   2.656   2.603
 1974SOL     OW 5930   2.323   3.128   3.589
 1974SOL    HW1 5931   2.273   3.129   3.503
 1974SOL    HW2 5932   2.260   3.110   3.665
 1975SOL     OW 5933   2.973   3.638   2.099
 1975SOL    HW1 5934   2.913   3.576   2.149
 1975SOL    HW2 5935   3.004   3.594   2.014
 1976SOL     OW 5936   2.064   2.147   3.360
 1976SOL    HW1 5937   1.984   2.207   3.347
 1976SOL    HW2 5938   2.054   2.098   3.446
 1977SOL     OW 5939   3.494   3.239   1.943
 1977SOL    HW1 5940   3.462   3.333   1.933
 1977SOL    HW2 5941   3.418   3.176   1.931
 1978SOL     OW 5942   2.326   3.605   2.185
 1978SOL    HW1 5943   2.359   3.644   2.271
 1978SOL    HW2 5944   2.402   3.598   2.120
 1979SOL     OW 5945   3.262   1.969   2.288
 1979SOL    HW1 5946   3.238   1.932   2.198
 1979SOL    HW2 5947   3.361   1.985   2.292
 1980SOL     OW 5948   2.111   3.647   3.103
 1980SOL    HW1 5949   2.168   3.582   3.153
 1980SOL    HW2 5950   2.095   3.614   3.010
 1981SOL     OW 5951   2.802   3.560   2.766
 1981SOL    HW1 5952   2.882   3.503   2.787
 1981SOL    HW2 5953   2.753   3.520   2.689
 1982SOL     OW 5954   3.409   2.084   3.591
 1982SOL    HW1 5955   3.404   2.121   3.683
 1982SOL    HW2 5956   3.337   2.015   3.579
 1983SOL     OW 5957   2.476   1.984   1.979
 1983SOL    HW1 5958   2.574   1.962   1.986
 1983SOL    HW2 5959   2.445   1.967   1.886
 1984SOL     OW 5960   2.643   2.126   3.611
 1984SOL    HW1 5961   2.710   2.065   3.654
 1984SOL    HW2 5962   2.570   2.145   3.676
 1985SOL     OW 5963   2.750   3.376   3.057
 1985SOL    HW1 5964   2.727   3.351   2.963
 1985SOL    HW2 5965   2.811   3.307   3.096
 1986SOL     OW 5966   3.213   2.452   3.295
 1986SOL    HW1 5967   3.241   2.409   3.380
 1986SOL    HW2 5968   3.238   2.548   3.296
 1987SOL     OW 5969   2.665   3.264   2.786
 1987SOL    HW1 5970   2.755   3.278   2.744
 1987SOL    HW2 5971   2.594   3.266   2.715
 1988SOL     OW 5972   2.784   2.365   2.761
 1988SOL    HW1 5973   2.759   2.356   2.665
 1988SOL    HW2 5974   2.832   2.283   2.792
 1989SOL     OW 5975   2.401   1.926   2.374
 1989SOL    HW1 5976   2.320   1.927   2.432
 1989SOL    HW2 5977   2.404   2.009   2.319
 1990SOL     OW 5978   3.296   3.050   1.903
 1990SOL    HW1 5979   3.328   2.974   1.960
 1990SOL    HW2 5980   3.204   3.077   1.933
 1991SOL     OW 5981   2.159   1.897   2.033
 1991SOL    HW1 5982   2.208   1.981   2.012
 1991SOL    HW2 5983   2.221   1.832   2.078
 1992SOL     OW 5984   2.797   2.098   2.342
 1992SOL    HW1 5985   2.749   2.139   2.264
 1992SOL    HW2 5986   2.896   2.096   2.323
 1993SOL     OW 5987   2.938   2.545   3.326
 1993SOL    HW1 5988   2.858   2.484   3.329
 1993SOL    HW2 5989   3.019   2.492   3.302
 1994SOL     OW 5990   3.089   3.432   2.655
 1994SOL    HW1 5991   3.110   3.506   2.590
 1994SOL    HW2 5992   3.157   3.432   2.728
 1995SOL     OW 5993   2.321   3.014   2.603
 1995SOL    HW1 5994   2.250   2.987   2.668
 1995SOL    HW2 5995   2.295   2.986   2.510
 1996SOL     OW 5996   3.133   3.659   2.453
 1996SOL    HW1 5997   3.177   3.723   2.389
 1996SOL    HW2 5998   3.083   3.711   2.523
 1997SOL     OW 5999   2.894   2.411   1.878
 1997SOL    HW1 6000   2.853   2.493   1.839
 1997SOL    HW2 6001   2.958   2.437   1.951
 1998SOL     OW 6002   1.940   2.418   3.248
 1998SOL    HW1 6003   2.032   2.417   3.207
 1998SOL    HW2 6004   1.934   2.492   3.315
 1999SOL     OW 6005   2.423   2.084   3.009
 1999SOL    HW1 6006   2.461   2.000   3.046
 1999SOL    HW2 6007   2.335   2.103   3.053
 2000SOL     OW 6008   2.728   2.316   2.504
 2000SOL    HW1 6009   2.696   2.388   2.442
 2000SOL    HW2 6010   2.752   2.235   2.451
 2001SOL     OW 6011   2.879   1.901   2.615
 2001SOL    HW1 6012   2.807   1.906   2.546
 2001SOL    HW2 6013   2.855   1.832   2.684
 2002SOL     OW 6014   3.291   3.035   2.729
 2002SOL    HW1 6015   3.236   2.951   2.722
 2002SOL    HW2 6016   3.317   3.064   2.637
 2003SOL     OW 6017   3.328   2.452   2.854
 2003SOL    HW1 6018   3.298   2.357   2.861
 2003SOL    HW2 6019   3.401   2.468   2.920
 2004SOL     OW 6020   3.719   2.695   2.239
 2004SOL    HW1 6021   3.761   2.631   2.303
 2004SOL    HW2 6022   3.681   2.644   2.161
 2005SOL     OW 6023   2.350   3.247   2.036
 2005SOL    HW1 6024   2.263   3.232   2.083
 2005SOL    HW2 6025   2.333   3.273   1.941
 2006SOL     OW 6026   3.526   3.142   2.519
 2006SOL    HW1 6027   3.625   3.150   2.533
 2006SOL    HW2 6028   3.481   3.226   2.550
 2007SOL     OW 6029   3.252   2.437   1.940
 2007SOL    HW1 6030   3.198   2.416   2.021
 2007SOL    HW2 6031   3.343   2.396   1.949
 2008SOL     OW 6032   3.616   3.085   3.450
 2008SOL    HW1 6033   3.707   3.046   3.437
 2008SOL    HW2 6034   3.624   3.181   3.474
 2009SOL     OW 6035   2.926   3.209   3.202
 2009SOL    HW1 6036   2.846   3.186   3.257
 2009SOL    HW2 6037   3.009   3.183   3.251
 2010SOL     OW 6038   3.454   3.491   3.487
 2010SOL    HW1 6039   3.481   3.525   3.397
 2010SOL    HW2 6040   3.533   3.453   3.533
 2011SOL     OW 6041   2.973   3.057   2.962
 2011SOL    HW1 6042   2.933   3.101   3.043
 2011SOL    HW2 6043   2.932   3.094   2.879
 2012SOL     OW 6044   3.500   2.961   2.941
 2012SOL    HW1 6045   3.505   3.042   3.000
 2012SOL    HW2 6046   3.414   2.963   2.890
 2013SOL     OW 6047   2.777   1.951   3.264
 2013SOL    HW1 6048   2.802   1.931   3.169
 2013SOL    HW2 6049   2.849   2.007   3.306
 2014SOL     OW 6050   2.842   2.978   3.581
 2014SOL    HW1 6051   2.743   2.984   3.591
 2014SOL    HW2 6052   2.865   2.898   3.525
 2015SOL     OW 6053   2.567   2.912   2.230
 2015SOL    HW1 6054   2.553   2.919   2.329
 2015SOL    HW2 6055   2.651   2.861   2.212
 2016SOL     OW 6056   2.272   2.675   3.113
 2016SOL    HW1 6057   2.358   2.687   3.163
 2016SOL    HW2 6058   2.230   2.588   3.140
 2017SOL     OW 6059   3.136   2.248   3.124
 2017SOL    HW1 6060   3.157   2.322   3.188
 2017SOL    HW2 6061   3.047   2.265   3.081
 2018SOL     OW 6062   1.926   3.426   3.193
 2018SOL    HW1 6063   1.880   3.508   3.159
 2018SOL    HW2 6064   2.024   3.445   3.202
 2019SOL     OW 6065   2.229   2.962   2.363
 2019SOL    HW1 6066   2.222   3.045   2.307
 2019SOL    HW2 6067   2.233   2.882   2.303
 2020SOL     OW 6068   2.428   2.399   2.727
 2020SOL    HW1 6069   2.440   2.465   2.653
 2020SOL    HW2 6070   2.474   2.433   2.810
 2021SOL     OW 6071   3.114   3.210   2.250
 2021SOL    HW1 6072   3.164   3.287   2.290
 2021SOL    HW2 6073   3.019   3.212   2.282
 2022SOL     OW 6074   3.134   3.307   3.004
 2022SOL    HW1 6075   3.181   3.320   3.091
 2022SOL    HW2 6076   3.068   3.233   3.013
 2023SOL     OW 6077   3.444   2.501   2.334
 2023SOL    HW1 6078   3.413   2.562   2.407
 2023SOL    HW2 6079   3.494   2.553   2.265
 2024SOL     OW 6080   2.216   3.372   3.191
 2024SOL    HW1 6081   2.195   3.328   3.104
 2024SOL    HW2 6082   2.313   3.398   3.194
 2025SOL     OW 6083   2.264   2.613   3.460
 2025SOL    HW1 6084   2.332   2.668   3.413
 2025SOL    HW2 6085   2.304   2.525   3.487
 2026SOL     OW 6086   3.449   2.641   3.532
 2026SOL    HW1 6087   3.357   2.679   3.527
 2026SOL    HW2 6088   3.509   2.688   3.467
 2027SOL     OW 6089   2.875   1.967   3.632
 2027SOL    HW1 6090   2.881   2.052   3.580
 2027SOL    HW2 6091   2.907   1.891   3.575
 2028SOL     OW 6092   2.366   1.912   3.602
 2028SOL    HW1 6093   2.324   1.855   3.532
 2028SOL    HW2 6094   2.300   1.981   3.634
 2029SOL     OW 6095   2.435   2.732   2.891
 2029SOL    HW1 6096   2.479   2.821   2.882
 2029SOL    HW2 6097   2.372   2.732   2.968
 2030SOL     OW 6098   3.222   2.724   2.907
 2030SOL    HW1 6099   3.147   2.724   2.841
 2030SOL    HW2 6100   3.259   2.632   2.916
 2031SOL     OW 6101   3.071   2.387   2.137
 2031SOL    HW1 6102   3.084   2.303   2.191
 2031SOL    HW2 6103   3.042   2.461   2.197
 2032SOL     OW 6104   2.169   2.075   3.093
 2032SOL    HW1 6105   2.146   2.112   3.183
 2032SOL    HW2 6106   2.139   1.980   3.087
 2033SOL     OW 6107   1.899   3.172   3.144
 2033SOL    HW1 6108   1.952   3.123   3.212
 2033SOL    HW2 6109   1.921   3.270   3.149
 2034SOL     OW 6110   2.594   2.496   2.926
 2034SOL    HW1 6111   2.653   2.470   2.850
 2034SOL    HW2 6112   2.566   2.592   2.915
 2035SOL     OW 6113   3.590   2.797   3.716
 2035SOL    HW1 6114   3.544   2.790   3.627
 2035SOL    HW2 6115   3.528   2.841   3.782
 2036SOL     OW 6116   2.169   1.925   2.480
 2036SOL    HW1 6117   2.158   2.019   2.513
 2036SOL    HW2 6118   2.164   1.862   2.557
 2037SOL     OW 6119   3.484   2.229   2.236
 2037SOL    HW1 6120   3.486   2.153   2.300
 2037SOL    HW2 6121   3.436   2.306   2.276
 2038SOL     OW 6122   2.885   2.628   2.828
 2038SOL    HW1 6123   2.900   2.649   2.924
 2038SOL    HW2 6124   2.855   2.533   2.819
 2039SOL     OW 6125   2.842   3.435   3.562
 2039SOL    HW1 6126   2.822   3.479   3.474
 2039SOL    HW2 6127   2.881   3.344   3.546
 2040SOL     OW 6128   3.721   3.380   3.467
 2040SOL    HW1 6129   3.735   3.407   3.372
 2040SOL    HW2 6130   3.804   3.402   3.520
 2041SOL     OW 6131   2.212   2.760   3.666
 2041SOL    HW1 6132   2.288   2.804   3.714
 2041SOL    HW2 6133   2.247   2.713   3.584
 2042SOL     OW 6134   3.402   2.136   1.987
 2042SOL    HW1 6135   3.341   2.061   2.010
 2042SOL    HW2 6136   3.424   2.188   2.070
 2043SOL     OW 6137   3.165   2.700   1.904
 2043SOL    HW1 6138   3.199   2.607   1.919
 2043SOL    HW2 6139   3.183   2.727   1.809
 2044SOL     OW 6140   2.930   3.195   2.711
 2044SOL    HW1 6141   2.937   3.111   2.656
 2044SOL    HW2 6142   2.992   3.264   2.675
 2045SOL     OW 6143   2.181   2.672   2.811
 2045SOL    HW1 6144   2.274   2.708   2.816
 2045SOL    HW2 6145   2.175   2.587   2.863
 2046SOL     OW 6146   2.201   2.371   2.868
 2046SOL    HW1 6147   2.149   2.288   2.851
 2046SOL    HW2 6148   2.278   2.376   2.804
 2047SOL     OW 6149   3.000   2.242   3.540
 2047SOL    HW1 6150   2.955   2.305   3.604
 2047SOL    HW2 6151   3.093   2.273   3.523
 2048SOL     OW 6152   3.022   2.069   3.339
 2048SOL    HW1 6153   3.022   2.133   3.416
 2048SOL    HW2 6154   3.050   2.117   3.256
 2049SOL     OW 6155   1.870   3.188   2.062
 2049SOL    HW1 6156   1.777   3.209   2.031
 2049SOL    HW2 6157   1.880   3.089   2.075
 2050SOL     OW 6158   1.950   3.663   2.789
 2050SOL    HW1 6159   1.908   3.577   2.762
 2050SOL    HW2 6160   2.044   3.666   2.755
 2051SOL     OW 6161   2.366   3.430   2.772
 2051SOL    HW1 6162   2.432   3.504   2.781
 2051SOL    HW2 6163   2.410   3.351   2.730
 2052SOL     OW 6164   2.864   2.658   3.100
 2052SOL    HW1 6165   2.905   2.626   3.186
 2052SOL    HW2 6166   2.768   2.631   3.097
 2053SOL     OW 6167   1.902   2.406   2.976
 2053SOL    HW1 6168   1.987   2.373   2.935
 2053SOL    HW2 6169   1.915   2.421   3.074
 2054SOL     OW 6170   2.051   2.382   3.584
 2054SOL    HW1 6171   2.110   2.342   3.514
 2054SOL    HW2 6172   1.993   2.453   3.543
 2055SOL     OW 6173   3.231   2.812   3.522
 2055SOL    HW1 6174   3.270   2.901   3.542
 2055SOL    HW2 6175   3.241   2.792   3.425
 2056SOL     OW 6176   2.677   2.434   2.187
 2056SOL    HW1 6177   2.684   2.345   2.141
 2056SOL    HW2 6178   2.583   2.468   2.179
 2057SOL     OW 6179   3.519   2.466   3.068
 2057SOL    HW1 6180   3.481   2.397   3.130
 2057SOL    HW2 6181   3.601   2.430   3.024
 2058SOL     OW 6182   2.114   3.426   3.606
 2058SOL    HW1 6183   2.084   3.483   3.682
 2058SOL    HW2 6184   2.107   3.329   3.632
 2059SOL     OW 6185   2.533   2.326   3.131
 2059SOL    HW1 6186   2.499   2.237   3.101
 2059SOL    HW2 6187   2.559   2.380   3.051
 2060SOL     OW 6188   2.792   3.540   3.327
 2060SOL    HW1 6189   2.768   3.522   3.232
 2060SOL    HW2 6190   2.822   3.634   3.337
 2061SOL     OW 6191   2.021   2.999   3.328
 2061SOL    HW1 6192   2.043   2.938   3.404
 2061SOL    HW2 6193   2.031   2.950   3.242
 2062SOL     OW 6194   3.209   2.921   3.096
 2062SOL    HW1 6195   3.233   2.858   3.022
 2062SOL    HW2 6196   3.119   2.961   3.078
 2063SOL     OW 6197   3.164   2.717   2.171
 2063SOL    HW1 6198   3.078   2.686   2.213
 2063SOL    HW2 6199   3.160   2.703   2.072
 2064SOL     OW 6200   3.621   3.609   3.016
 2064SOL    HW1 6201   3.682   3.639   2.943
 2064SOL    HW2 6202   3.583   3.520   2.994
 2065SOL     OW 6203   3.114   3.593   2.990
 2065SOL    HW1 6204   3.198   3.598   2.936
 2065SOL    HW2 6205   3.091   3.497   3.008
 2066SOL     OW 6206   1.945   3.120   2.884
 2066SOL    HW1 6207   1.940   3.119   2.984
 2066SOL    HW2 6208   1.862   3.079   2.846
 2067SOL     OW 6209   2.550   3.524   3.578
 2067SOL    HW1 6210   2.494   3.605   3.587
 2067SOL    HW2 6211   2.602   3.528   3.492
 2068SOL     OW 6212   3.588   1.997   2.385
 2068SOL    HW1 6213   3.661   1.980   2.318
 2068SOL    HW2 6214   3.557   1.910   2.423
 2069SOL     OW 6215   3.250   3.435   2.339
 2069SOL    HW1 6216   3.317   3.447   2.265
 2069SOL    HW2 6217   3.210   3.524   2.362
 2070SOL     OW 6218   1.992   3.656   3.713
 2070SOL    HW1 6219   1.951   3.582   3.766
 2070SOL    HW2 6220   2.056   3.707   3.771
 2071SOL     OW 6221   3.142   2.789   2.534
 2071SOL    HW1 6222   3.202   2.708   2.536
 2071SOL    HW2 6223   3.182   2.858   2.474
 2072SOL     OW 6224   2.692   3.135   3.284
 2072SOL    HW1 6225   2.687   3.168   3.379
 2072SOL    HW2 6226   2.606   3.154   3.238
 2073SOL     OW 6227   2.534   3.478   2.016
 2073SOL    HW1 6228   2.543   3.488   1.917
 2073SOL    HW2 6229   2.494   3.389   2.037
 2074SOL     OW 6230   3.512   3.582   3.256
 2074SOL    HW1 6231   3.565   3.592   3.172
 2074SOL    HW2 6232   3.485   3.672   3.290
 2075SOL     OW 6233   3.703   2.037   2.825
 2075SOL    HW1 6234   3.742   1.952   2.789
 2075SOL    HW2 6235   3.605   2.039   2.806
 2076SOL     OW 6236   2.125   2.188   2.582
 2076SOL    HW1 6237   2.046   2.239   2.548
 2076SOL    HW2 6238   2.116   2.173   2.680
 2077SOL     OW 6239   3.056   3.474   1.893
 2077SOL    HW1 6240   3.062   3.381   1.930
 2077SOL    HW2 6241   2.997   3.474   1.813
 2078SOL     OW 6242   2.684   2.864   3.234
 2078SOL    HW1 6243   2.724   2.863   3.142
 2078SOL    HW2 6244   2.694   2.956   3.274
 2079SOL     OW 6245   2.778   2.772   2.153
 2079SOL    HW1 6246   2.841   2.810   2.085
 2079SOL    HW2 6247   2.818   2.689   2.192
 2080SOL     OW 6248   3.366   3.469   1.906
 2080SOL    HW1 6249   3.274   3.506   1.913
 2080SOL    HW2 6250   3.404   3.489   1.816
 2081SOL     OW 6251   2.234   3.150   3.352
 2081SOL    HW1 6252   2.221   3.243   3.318
 2081SOL    HW2 6253   2.150   3.098   3.339
 2082SOL     OW 6254   3.476   3.154   3.151
 2082SOL    HW1 6255   3.536   3.157   3.231
 2082SOL    HW2 6256   3.401   3.218   3.164
 2083SOL     OW 6257   2.901   2.960   2.558
 2083SOL    HW1 6258   2.831   2.913   2.612
 2083SOL    HW2 6259   2.960   2.892   2.515
 2084SOL     OW 6260   2.876   2.098   2.833
 2084SOL    HW1 6261   2.868   2.062   2.740
 2084SOL    HW2 6262   2.874   2.022   2.898
 2085SOL     OW 6263   2.452   3.349   2.353
 2085SOL    HW1 6264   2.494   3.291   2.283
 2085SOL    HW2 6265   2.408   3.428   2.309
 2086SOL     OW 6266   3.571   2.247   3.243
 2086SOL    HW1 6267   3.644   2.316   3.247
 2086SOL    HW2 6268   3.599   2.172   3.184
 2087SOL     OW 6269   2.117   3.210   2.152
 2087SOL    HW1 6270   2.021   3.211   2.125
 2087SOL    HW2 6271   2.129   3.263   2.236
 2088SOL     OW 6272   1.967   2.875   3.588
 2088SOL    HW1 6273   1.890   2.842   3.642
 2088SOL    HW2 6274   2.052   2.845   3.630
 2089SOL     OW 6275   2.534   2.065   3.351
 2089SOL    HW1 6276   2.624   2.049   3.311
 2089SOL    HW2 6277   2.542   2.070   3.450
 2090SOL     OW 6278   1.937   2.207   1.895
 2090SOL    HW1 6279   1.845   2.179   1.866
 2090SOL    HW2 6280   1.968   2.284   1.839
 2091SOL     OW 6281   3.302   2.718   3.260
 2091SOL    HW1 6282   3.245   2.770   3.197
 2091SOL    HW2 6283   3.398   2.730   3.236
 2092SOL     OW 6284   3.045   3.197   1.981
 2092SOL    HW1 6285   2.946   3.186   1.983
 2092SOL    HW2 6286   3.079   3.212   2.074
 2093SOL     OW 6287   2.475   2.704   3.293
 2093SOL    HW1 6288   2.531   2.785   3.276
 2093SOL    HW2 6289   2.534   2.624   3.296
 2094SOL     OW 6290   3.355   3.629   2.821
 2094SOL    HW1 6291   3.388   3.693   2.752
 2094SOL    HW2 6292   3.421   3.623   2.896
 2095SOL     OW 6293   2.578   2.427   3.570
 2095SOL    HW1 6294   2.597   2.492   3.644
 2095SOL    HW2 6295   2.638   2.347   3.579
 2096SOL     OW 6296   3.312   3.082   3.495
 2096SOL    HW1 6297   3.303   3.072   3.594
 2096SOL    HW2 6298   3.408   3.075   3.469
 2097SOL     OW 6299   2.252   3.603   3.422
 2097SOL    HW1 6300   2.161   3.644   3.420
 2097SOL    HW2 6301   2.245   3.509   3.454
 2098SOL     OW 6302   3.536   2.745   3.116
 2098SOL    HW1 6303   3.509   2.656   3.079
 2098SOL    HW2 6304   3.537   2.813   3.043
 2099SOL     OW 6305   3.087   2.187   2.311
 2099SOL    HW1 6306   3.152   2.113   2.300
 2099SOL    HW2 6307   3.107   2.237   2.395
 2100SOL     OW 6308   2.456   2.607   2.514
 2100SOL    HW1 6309   2.506   2.692   2.495
 2100SOL    HW2 6310   2.368   2.609   2.466
 2101SOL     OW 6311   3.639   2.204   3.504
 2101SOL    HW1 6312   3.622   2.235   3.410
 2101SOL    HW2 6313   3.555   2.167   3.542
 2102SOL     OW 6314   3.592   2.796   3.379
 2102SOL    HW1 6315   3.630   2.887   3.394
 2102SOL    HW2 6316   3.584   2.779   3.280
 2103SOL     OW 6317   2.721   3.236   1.878
 2103SOL    HW1 6318   2.675   3.251   1.966
 2103SOL    HW2 6319   2.765   3.321   1.848
 2104SOL     OW 6320   2.523   3.652   2.815
 2104SOL    HW1 6321   2.477   3.740   2.802
 2104SOL    HW2 6322   2.622   3.664   2.808
 2105SOL     OW 6323   2.721   2.818   2.723
 2105SOL    HW1 6324   2.775   2.749   2.771
 2105SOL    HW2 6325   2.689   2.887   2.789
 2106SOL     OW 6326   2.945   2.846   1.949
 2106SOL    HW1 6327   2.922   2.899   1.867
 2106SOL    HW2 6328   3.026   2.790   1.930
 2107SOL     OW 6329   3.723   3.431   2.713
 2107SOL    HW1 6330   3.652   3.419   2.643
 2107SOL    HW2 6331   3.724   3.352   2.773
 2108SOL     OW 6332   2.083   3.176   3.706
 2108SOL    HW1 6333   2.018   3.103   3.685
 2108SOL    HW2 6334   2.087   3.190   3.804
 2109SOL     OW 6335   1.941   3.102   2.515
 2109SOL    HW1 6336   1.940   3.055   2.603
 2109SOL    HW2 6337   2.023   3.074   2.464
 2110SOL     OW 6338   2.534   3.253   3.486
 2110SOL    HW1 6339   2.456   3.203   3.524
 2110SOL    HW2 6340   2.531   3.348   3.517
 2111SOL     OW 6341   3.686   2.054   3.089
 2111SOL    HW1 6342   3.682   1.964   3.133
 2111SOL    HW2 6343   3.689   2.043   2.990
 2112SOL     OW 6344   3.567   3.349   2.966
 2112SOL    HW1 6345   3.474   3.324   2.939
 2112SOL    HW2 6346   3.593   3.299   3.048
 2113SOL     OW 6347   2.179   2.409   3.142
 2113SOL    HW1 6348   2.217   2.350   3.214
 2113SOL    HW2 6349   2.219   2.383   3.054
 2114SOL     OW 6350   2.674   3.448   2.549
 2114SOL    HW1 6351   2.706   3.458   2.455
 2114SOL    HW2 6352   2.595   3.386   2.551
 2115SOL     OW 6353   3.286   2.076   2.974
 2115SOL    HW1 6354   3.338   2.011   3.029
 2115SOL    HW2 6355   3.237   2.139   3.035
 2116SOL     OW 6356   2.863   1.896   3.016
 2116SOL    HW1 6357   2.800   1.824   2.985
 2116SOL    HW2 6358   2.956   1.860   3.016
 2117SOL     OW 6359   2.632   3.192   2.163
 2117SOL    HW1 6360   2.586   3.105   2.180
 2117SOL    HW2 6361   2.723   3.189   2.204
 2118SOL     OW 6362   2.480   3.429   3.146
 2118SOL    HW1 6363   2.475   3.511   3.203
 2118SOL    HW2 6364   2.569   3.426   3.101
 2119SOL     OW 6365   3.214   1.914   2.030
 2119SOL    HW1 6366   3.249   1.873   1.946
 2119SOL    HW2 6367   3.124   1.876   2.050
 2120SOL     OW 6368   3.162   2.315   2.553
 2120SOL    HW1 6369   3.103   2.395   2.557
 2120SOL    HW2 6370   3.177   2.280   2.646
 2121SOL     OW 6371   3.455   2.083   2.744
 2121SOL    HW1 6372   3.371   2.082   2.798
 2121SOL    HW2 6373   3.457   2.166   2.688
 2122SOL     OW 6374   1.901   2.939   2.162
 2122SOL    HW1 6375   2.000   2.928   2.153
 2122SOL    HW2 6376   1.861   2.853   2.194
 2123SOL     OW 6377   2.737   3.508   2.199
 2123SOL    HW1 6378   2.660   3.473   2.145
 2123SOL    HW2 6379   2.705   3.579   2.261
 2124SOL     OW 6380   2.092   2.490   3.837
 2124SOL    HW1 6381   1.999   2.488   3.874
 2124SOL    HW2 6382   2.093   2.451   3.745
 2125SOL     OW 6383   3.617   2.469   3.955
 2125SOL    HW1 6384   3.605   2.456   3.856
 2125SOL    HW2 6385   3.587   2.388   4.004
 2126SOL     OW 6386   2.093   3.575   4.207
 2126SOL    HW1 6387   2.127   3.652   4.261
 2126SOL    HW2 6388   2.137   3.575   4.117
 2127SOL     OW 6389   2.092   3.296   4.262
 2127SOL    HW1 6390   2.066   3.392   4.262
 2127SOL    HW2 6391   2.021   3.242   4.307
 2128SOL     OW 6392   2.468   2.826   3.847
 2128SOL    HW1 6393   2.475   2.910   3.793
 2128SOL    HW2 6394   2.514   2.839   3.935
 2129SOL     OW 6395   1.984   2.505   4.287
 2129SOL    HW1 6396   1.939   2.417   4.304
 2129SOL    HW2 6397   1.983   2.559   4.371
 2130SOL     OW 6398   3.704   3.629   4.083
 2130SOL    HW1 6399   3.758   3.600   4.163
 2130SOL    HW2 6400   3.734   3.719   4.054
 2131SOL     OW 6401   1.889   3.458   3.841
 2131SOL    HW1 6402   1.870   3.362   3.862
 2131SOL    HW2 6403   1.856   3.516   3.916
 2132SOL     OW 6404   3.551   2.784   4.336
 2132SOL    HW1 6405   3.646   2.755   4.344
 2132SOL    HW2 6406   3.543   2.849   4.261
 2133SOL     OW 6407   3.503   2.970   4.156
 2133SOL    HW1 6408   3.589   2.972   4.104
 2133SOL    HW2 6409   3.517   3.017   4.244
 2134SOL     OW 6410   2.475   3.227   4.450
 2134SOL    HW1 6411   2.426   3.140   4.459
 2134SOL    HW2 6412   2.452   3.270   4.363
 2135SOL     OW 6413   2.671   1.866   4.226
 2135SOL    HW1 6414   2.711   1.957   4.217
 2135SOL    HW2 6415   2.571   1.874   4.232
 2136SOL     OW 6416   3.387   2.861   3.914
 2136SOL    HW1 6417   3.324   2.785   3.927
 2136SOL    HW2 6418   3.435   2.879   4.000
 2137SOL     OW 6419   3.328   3.279   4.677
 2137SOL    HW1 6420   3.269   3.285   4.757
 2137SOL    HW2 6421   3.313   3.191   4.631
 2138SOL     OW 6422   2.460   2.591   3.994
 2138SOL    HW1 6423   2.484   2.660   3.926
 2138SOL    HW2 6424   2.382   2.624   4.048
 2139SOL     OW 6425   3.438   3.524   4.031
 2139SOL    HW1 6426   3.527   3.570   4.034
 2139SOL    HW2 6427   3.417   3.500   3.936
 2140SOL     OW 6428   2.903   2.563   4.153
 2140SOL    HW1 6429   2.929   2.559   4.249
 2140SOL    HW2 6430   2.818   2.512   4.139
 2141SOL     OW 6431   1.938   2.673   4.513
 2141SOL    HW1 6432   2.037   2.661   4.522
 2141SOL    HW2 6433   1.914   2.768   4.534
 2142SOL     OW 6434   2.727   2.210   3.919
 2142SOL    HW1 6435   2.786   2.273   3.870
 2142SOL    HW2 6436   2.746   2.116   3.890
 2143SOL     OW 6437   3.224   3.006   4.269
 2143SOL    HW1 6438   3.307   2.977   4.221
 2143SOL    HW2 6439   3.175   3.073   4.213
 2144SOL     OW 6440   2.870   3.318   4.201
 2144SOL    HW1 6441   2.824   3.390   4.149
 2144SOL    HW2 6442   2.866   3.338   4.299
 2145SOL     OW 6443   2.213   3.663   4.577
 2145SOL    HW1 6444   2.263   3.577   4.583
 2145SOL    HW2 6445   2.278   3.740   4.574
 2146SOL     OW 6446   3.657   2.928   4.597
 2146SOL    HW1 6447   3.595   2.913   4.521
 2146SOL    HW2 6448   3.605   2.939   4.682
 2147SOL     OW 6449   2.183   2.805   3.966
 2147SOL    HW1 6450   2.265   2.844   3.924
 2147SOL    HW2 6451   2.156   2.723   3.917
 2148SOL     OW 6452   2.973   3.638   3.961
 2148SOL    HW1 6453   2.913   3.576   4.011
 2148SOL    HW2 6454   3.004   3.594   3.876
 2149SOL     OW 6455   3.494   3.239   3.805
 2149SOL    HW1 6456   3.462   3.333   3.795
 2149SOL    HW2 6457   3.418   3.176   3.793
 2150SOL     OW 6458   2.326   3.605   4.047
 2150SOL    HW1 6459   2.359   3.644   4.133
 2150SOL    HW2 6460   2.402   3.598   3.982
 2151SOL     OW 6461   3.262   1.969   4.150
 2151SOL    HW1 6462   3.238   1.932   4.060
 2151SOL    HW2 6463   3.361   1.985   4.154
 2152SOL     OW 6464   2.244   2.562   4.204
 2152SOL    HW1 6465   2.289   2.472   4.201
 2152SOL    HW2 6466   2.150   2.551   4.237
 2153SOL     OW 6467   2.476   1.984   3.841
 2153SOL    HW1 6468   2.574   1.962   3.848
 2153SOL    HW2 6469   2.445   1.967   3.748
 2154SOL     OW 6470   2.401   1.926   4.236
 2154SOL    HW1 6471   2.320   1.927   4.294
 2154SOL    HW2 6472   2.404   2.009   4.181
 2155SOL     OW 6473   3.296   3.050   3.765
 2155SOL    HW1 6474   3.328   2.974   3.822
 2155SOL    HW2 6475   3.204   3.077   3.795
 2156SOL     OW 6476   2.159   1.897   3.895
 2156SOL    HW1 6477   2.208   1.981   3.874
 2156SOL    HW2 6478   2.221   1.832   3.940
 2157SOL     OW 6479   2.797   2.098   4.204
 2157SOL    HW1 6480   2.749   2.139   4.126
 2157SOL    HW2 6481   2.896   2.096   4.185
 2158SOL     OW 6482   2.321   3.014   4.465
 2158SOL    HW1 6483   2.250   2.987   4.530
 2158SOL    HW2 6484   2.295   2.986   4.372
 2159SOL     OW 6485   3.133   3.659   4.315
 2159SOL    HW1 6486   3.177   3.723   4.251
 2159SOL    HW2 6487   3.083   3.711   4.385
 2160SOL     OW 6488   2.894   2.411   3.740
 2160SOL    HW1 6489   2.853   2.493   3.701
 2160SOL    HW2 6490   2.958   2.437   3.813
 2161SOL     OW 6491   2.728   2.316   4.366
 2161SOL    HW1 6492   2.696   2.388   4.304
 2161SOL    HW2 6493   2.752   2.235   4.313
 2162SOL     OW 6494   3.719   2.695   4.101
 2162SOL    HW1 6495   3.761   2.631   4.165
 2162SOL    HW2 6496   3.681   2.644   4.023
 2163SOL     OW 6497   2.350   3.247   3.898
 2163SOL    HW1 6498   2.263   3.232   3.945
 2163SOL    HW2 6499   2.333   3.273   3.803
 2164SOL     OW 6500   3.252   2.437   3.802
 2164SOL    HW1 6501   3.198   2.416   3.883
 2164SOL    HW2 6502   3.343   2.396   3.811
 2165SOL     OW 6503   2.389   2.118   4.052
 2165SOL    HW1 6504   2.416   2.059   3.977
 2165SOL    HW2 6505   2.389   2.213   4.021
 2166SOL     OW 6506   2.567   2.912   4.092
 2166SOL    HW1 6507   2.553   2.919   4.191
 2166SOL    HW2 6508   2.651   2.861   4.074
 2167SOL     OW 6509   2.229   2.962   4.225
 2167SOL    HW1 6510   2.222   3.045   4.169
 2167SOL    HW2 6511   2.233   2.882   4.165
 2168SOL     OW 6512   3.114   3.210   4.112
 2168SOL    HW1 6513   3.164   3.287   4.152
 2168SOL    HW2 6514   3.019   3.212   4.144
 2169SOL     OW 6515   3.444   2.501   4.196
 2169SOL    HW1 6516   3.413   2.562   4.269
 2169SOL    HW2 6517   3.494   2.553   4.127
 2170SOL     OW 6518   3.071   2.387   3.999
 2170SOL    HW1 6519   3.084   2.303   4.053
 2170SOL    HW2 6520   3.042   2.461   4.059
 2171SOL     OW 6521   2.169   1.925   4.342
 2171SOL    HW1 6522   2.158   2.019   4.375
 2171SOL    HW2 6523   2.164   1.862   4.419
 2172SOL     OW 6524   3.484   2.229   4.098
 2172SOL    HW1 6525   3.486   2.153   4.162
 2172SOL    HW2 6526   3.436   2.306   4.138
 2173SOL     OW 6527   3.402   2.136   3.849
 2173SOL    HW1 6528   3.341   2.061   3.872
 2173SOL    HW2 6529   3.424   2.188   3.932
 2174SOL     OW 6530   3.165   2.700   3.766
 2174SOL    HW1 6531   3.199   2.607   3.781
 2174SOL    HW2 6532   3.183   2.727   3.671
 2175SOL     OW 6533   1.870   3.188   3.924
 2175SOL    HW1 6534   1.777   3.209   3.893
 2175SOL    HW2 6535   1.880   3.089   3.937
 2176SOL     OW 6536   2.677   2.434   4.049
 2176SOL    HW1 6537   2.684   2.345   4.003
 2176SOL    HW2 6538   2.583   2.468   4.041
 2177SOL     OW 6539   2.335   2.362   3.915
 2177SOL    HW1 6540   2.396   2.442   3.919
 2177SOL    HW2 6541   2.240   2.393   3.922
 2178SOL     OW 6542   3.164   2.717   4.033
 2178SOL    HW1 6543   3.078   2.686   4.075
 2178SOL    HW2 6544   3.160   2.703   3.934
 2179SOL     OW 6545   3.588   1.997   4.247
 2179SOL    HW1 6546   3.661   1.980   4.180
 2179SOL    HW2 6547   3.557   1.910   4.285
 2180SOL     OW 6548   3.250   3.435   4.201
 2180SOL    HW1 6549   3.317   3.447   4.127
 2180SOL    HW2 6550   3.210   3.524   4.224
 2181SOL     OW 6551   2.534   3.478   3.878
 2181SOL    HW1 6552   2.543   3.488   3.779
 2181SOL    HW2 6553   2.494   3.389   3.899
 2182SOL     OW 6554   3.703   2.037   4.687
 2182SOL    HW1 6555   3.742   1.952   4.651
 2182SOL    HW2 6556   3.605   2.039   4.668
 2183SOL     OW 6557   3.056   3.474   3.755
 2183SOL    HW1 6558   3.062   3.381   3.792
 2183SOL    HW2 6559   2.997   3.474   3.675
 2184SOL     OW 6560   2.778   2.772   4.015
 2184SOL    HW1 6561   2.841   2.810   3.947
 2184SOL    HW2 6562   2.818   2.689   4.054
 2185SOL     OW 6563   3.366   3.469   3.768
 2185SOL    HW1 6564   3.274   3.506   3.775
 2185SOL    HW2 6565   3.404   3.489   3.678
 2186SOL     OW 6566   2.452   3.349   4.215
 2186SOL    HW1 6567   2.494   3.291   4.145
 2186SOL    HW2 6568   2.408   3.428   4.171
 2187SOL     OW 6569   2.117   3.210   4.014
 2187SOL    HW1 6570   2.021   3.211   3.987
 2187SOL    HW2 6571   2.129   3.263   4.098
 2188SOL     OW 6572   1.937   2.207   3.757
 2188SOL    HW1 6573   1.845   2.179   3.728
 2188SOL    HW2 6574   1.968   2.284   3.701
 2189SOL     OW 6575   1.934   2.028   4.042
 2189SOL    HW1 6576   1.917   2.111   3.988
 2189SOL    HW2 6577   2.024   1.991   4.020
 2190SOL     OW 6578   3.045   3.197   3.843
 2190SOL    HW1 6579   2.946   3.186   3.845
 2190SOL    HW2 6580   3.079   3.212   3.936
 2191SOL     OW 6581   3.087   2.187   4.173
 2191SOL    HW1 6582   3.152   2.113   4.162
 2191SOL    HW2 6583   3.107   2.237   4.257
 2192SOL     OW 6584   2.456   2.607   4.376
 2192SOL    HW1 6585   2.506   2.692   4.357
 2192SOL    HW2 6586   2.368   2.609   4.328
 2193SOL     OW 6587   2.721   3.236   3.740
 2193SOL    HW1 6588   2.675   3.251   3.828
 2193SOL    HW2 6589   2.765   3.321   3.710
 2194SOL     OW 6590   2.945   2.846   3.811
 2194SOL    HW1 6591   2.922   2.899   3.729
 2194SOL    HW2 6592   3.026   2.790   3.792
 2195SOL     OW 6593   1.941   3.102   4.377
 2195SOL    HW1 6594   1.940   3.055   4.465
 2195SOL    HW2 6595   2.023   3.074   4.326
 2196SOL     OW 6596   2.290   2.286   4.244
 2196SOL    HW1 6597   2.320   2.214   4.182
 2196SOL    HW2 6598   2.251   2.246   4.327
 2197SOL     OW 6599   2.674   3.448   4.411
 2197SOL    HW1 6600   2.706   3.458   4.317
 2197SOL    HW2 6601   2.595   3.386   4.413
 2198SOL     OW 6602   2.632   3.192   4.025
 2198SOL    HW1 6603   2.586   3.105   4.042
 2198SOL    HW2 6604   2.723   3.189   4.066
 2199SOL     OW 6605   3.214   1.914   3.892
 2199SOL    HW1 6606   3.249   1.873   3.808
 2199SOL    HW2 6607   3.124   1.876   3.912
 2200SOL     OW 6608   3.162   2.315   4.415
 2200SOL    HW1 6609   3.103   2.395   4.419
 2200SOL    HW2 6610   3.177   2.280   4.508
 2201SOL     OW 6611   1.901   2.939   4.024
 2201SOL    HW1 6612   2.000   2.928   4.015
 2201SOL    HW2 6613   1.861   2.853   4.056
 2202SOL     OW 6614   2.737   3.508   4.061
 2202SOL    HW1 6615   2.660   3.473   4.007
 2202SOL    HW2 6616   2.705   3.579   4.123
 2203SOL     OW 6617   2.087   3.999   0.996
 2203SOL    HW1 6618   2.122   3.982   1.088
 2203SOL    HW2 6619   1.999   3.954   0.984
 2204SOL     OW 6620   1.881   4.092   0.647
 2204SOL    HW1 6621   1.799   4.135   0.686
 2204SOL    HW2 6622   1.853   4.019   0.584
 2205SOL     OW 6623   3.617   4.331   0.231
 2205SOL    HW1 6624   3.605   4.318   0.132
 2205SOL    HW2 6625   3.587   4.250   0.280
 2206SOL     OW 6626   2.300   4.116   1.499
 2206SOL    HW1 6627   2.382   4.060   1.508
 2206SOL    HW2 6628   2.219   4.058   1.503
 2207SOL     OW 6629   3.465   4.171   0.737
 2207SOL    HW1 6630   3.391   4.217   0.687
 2207SOL    HW2 6631   3.516   4.239   0.790
 2208SOL     OW 6632   3.456   3.838   1.480
 2208SOL    HW1 6633   3.438   3.905   1.408
 2208SOL    HW2 6634   3.453   3.884   1.569
 2209SOL     OW 6635   1.984   4.367   0.563
 2209SOL    HW1 6636   1.939   4.279   0.580
 2209SOL    HW2 6637   1.983   4.421   0.647
 2210SOL     OW 6638   1.975   4.461   1.597
 2210SOL    HW1 6639   2.063   4.448   1.642
 2210SOL    HW2 6640   1.962   4.558   1.575
 2211SOL     OW 6641   2.671   3.728   0.502
 2211SOL    HW1 6642   2.711   3.819   0.493
 2211SOL    HW2 6643   2.571   3.736   0.508
 2212SOL     OW 6644   2.179   3.975   1.801
 2212SOL    HW1 6645   2.250   4.046   1.807
 2212SOL    HW2 6646   2.091   4.014   1.829
 2213SOL     OW 6647   3.143   4.069   0.944
 2213SOL    HW1 6648   3.057   4.019   0.931
 2213SOL    HW2 6649   3.205   4.015   1.000
 2214SOL     OW 6650   2.669   4.329   1.465
 2214SOL    HW1 6651   2.622   4.326   1.554
 2214SOL    HW2 6652   2.618   4.274   1.399
 2215SOL     OW 6653   3.256   4.193   1.674
 2215SOL    HW1 6654   3.236   4.236   1.762
 2215SOL    HW2 6655   3.334   4.131   1.683
 2216SOL     OW 6656   2.853   4.134   1.242
 2216SOL    HW1 6657   2.776   4.168   1.296
 2216SOL    HW2 6658   2.819   4.083   1.163
 2217SOL     OW 6659   2.903   4.425   0.429
 2217SOL    HW1 6660   2.929   4.421   0.525
 2217SOL    HW2 6661   2.818   4.374   0.415
 2218SOL     OW 6662   2.727   4.072   0.195
 2218SOL    HW1 6663   2.786   4.135   0.146
 2218SOL    HW2 6664   2.746   3.978   0.166
 2219SOL     OW 6665   3.581   4.309   1.831
 2219SOL    HW1 6666   3.555   4.398   1.795
 2219SOL    HW2 6667   3.579   4.241   1.758
 2220SOL     OW 6668   2.412   3.920   0.885
 2220SOL    HW1 6669   2.407   3.915   0.985
 2220SOL    HW2 6670   2.414   4.016   0.856
 2221SOL     OW 6671   3.320   4.459   0.728
 2221SOL    HW1 6672   3.315   4.394   0.803
 2221SOL    HW2 6673   3.400   4.518   0.741
 2222SOL     OW 6674   2.064   4.009   1.498
 2222SOL    HW1 6675   1.984   4.069   1.485
 2222SOL    HW2 6676   2.054   3.960   1.584
 2223SOL     OW 6677   3.262   3.831   0.426
 2223SOL    HW1 6678   3.238   3.794   0.336
 2223SOL    HW2 6679   3.361   3.847   0.430
 2224SOL     OW 6680   3.409   3.946   1.729
 2224SOL    HW1 6681   3.404   3.983   1.821
 2224SOL    HW2 6682   3.337   3.877   1.717
 2225SOL     OW 6683   2.476   3.846   0.117
 2225SOL    HW1 6684   2.574   3.824   0.124
 2225SOL    HW2 6685   2.445   3.829   0.024
 2226SOL     OW 6686   2.643   3.988   1.749
 2226SOL    HW1 6687   2.710   3.927   1.792
 2226SOL    HW2 6688   2.570   4.007   1.814
 2227SOL     OW 6689   3.213   4.314   1.433
 2227SOL    HW1 6690   3.241   4.271   1.518
 2227SOL    HW2 6691   3.238   4.410   1.434
 2228SOL     OW 6692   2.784   4.227   0.899
 2228SOL    HW1 6693   2.759   4.218   0.803
 2228SOL    HW2 6694   2.832   4.145   0.930
 2229SOL     OW 6695   2.401   3.788   0.512
 2229SOL    HW1 6696   2.320   3.789   0.570
 2229SOL    HW2 6697   2.404   3.871   0.457
 2230SOL     OW 6698   2.797   3.960   0.480
 2230SOL    HW1 6699   2.749   4.001   0.402
 2230SOL    HW2 6700   2.896   3.958   0.461
 2231SOL     OW 6701   2.938   4.407   1.464
 2231SOL    HW1 6702   2.858   4.346   1.467
 2231SOL    HW2 6703   3.019   4.354   1.440
 2232SOL     OW 6704   2.894   4.273   0.016
 2232SOL    HW1 6705   2.853   4.355  -0.023
 2232SOL    HW2 6706   2.958   4.299   0.089
 2233SOL     OW 6707   1.940   4.280   1.386
 2233SOL    HW1 6708   2.032   4.279   1.345
 2233SOL    HW2 6709   1.934   4.354   1.453
 2234SOL     OW 6710   2.423   3.946   1.147
 2234SOL    HW1 6711   2.461   3.862   1.184
 2234SOL    HW2 6712   2.335   3.965   1.191
 2235SOL     OW 6713   2.728   4.178   0.642
 2235SOL    HW1 6714   2.696   4.250   0.580
 2235SOL    HW2 6715   2.752   4.097   0.589
 2236SOL     OW 6716   2.879   3.763   0.753
 2236SOL    HW1 6717   2.807   3.768   0.684
 2236SOL    HW2 6718   2.855   3.694   0.822
 2237SOL     OW 6719   3.328   4.314   0.992
 2237SOL    HW1 6720   3.298   4.219   0.999
 2237SOL    HW2 6721   3.401   4.330   1.058
 2238SOL     OW 6722   2.389   3.980   0.328
 2238SOL    HW1 6723   2.416   3.921   0.253
 2238SOL    HW2 6724   2.389   4.075   0.297
 2239SOL     OW 6725   2.777   3.813   1.402
 2239SOL    HW1 6726   2.802   3.793   1.307
 2239SOL    HW2 6727   2.849   3.869   1.444
 2240SOL     OW 6728   3.136   4.110   1.262
 2240SOL    HW1 6729   3.157   4.184   1.326
 2240SOL    HW2 6730   3.047   4.127   1.219
 2241SOL     OW 6731   2.428   4.261   0.865
 2241SOL    HW1 6732   2.440   4.327   0.791
 2241SOL    HW2 6733   2.474   4.295   0.948
 2242SOL     OW 6734   3.444   4.363   0.472
 2242SOL    HW1 6735   3.413   4.424   0.545
 2242SOL    HW2 6736   3.494   4.415   0.403
 2243SOL     OW 6737   2.875   3.829   1.770
 2243SOL    HW1 6738   2.881   3.914   1.718
 2243SOL    HW2 6739   2.907   3.753   1.713
 2244SOL     OW 6740   2.366   3.774   1.740
 2244SOL    HW1 6741   2.324   3.717   1.670
 2244SOL    HW2 6742   2.300   3.843   1.772
 2245SOL     OW 6743   3.071   4.249   0.275
 2245SOL    HW1 6744   3.084   4.165   0.329
 2245SOL    HW2 6745   3.042   4.323   0.335
 2246SOL     OW 6746   2.169   3.937   1.231
 2246SOL    HW1 6747   2.146   3.974   1.321
 2246SOL    HW2 6748   2.139   3.842   1.225
 2247SOL     OW 6749   2.594   4.358   1.064
 2247SOL    HW1 6750   2.653   4.332   0.988
 2247SOL    HW2 6751   2.566   4.454   1.053
 2248SOL     OW 6752   2.169   3.787   0.618
 2248SOL    HW1 6753   2.158   3.881   0.651
 2248SOL    HW2 6754   2.164   3.724   0.695
 2249SOL     OW 6755   3.484   4.091   0.374
 2249SOL    HW1 6756   3.486   4.015   0.438
 2249SOL    HW2 6757   3.436   4.168   0.414
 2250SOL     OW 6758   3.402   3.998   0.125
 2250SOL    HW1 6759   3.341   3.923   0.148
 2250SOL    HW2 6760   3.424   4.050   0.208
 2251SOL     OW 6761   2.181   4.534   0.949
 2251SOL    HW1 6762   2.274   4.570   0.954
 2251SOL    HW2 6763   2.175   4.449   1.001
 2252SOL     OW 6764   2.201   4.233   1.006
 2252SOL    HW1 6765   2.149   4.150   0.989
 2252SOL    HW2 6766   2.278   4.238   0.942
 2253SOL     OW 6767   3.000   4.104   1.678
 2253SOL    HW1 6768   2.955   4.167   1.742
 2253SOL    HW2 6769   3.093   4.135   1.661
 2254SOL     OW 6770   3.022   3.931   1.477
 2254SOL    HW1 6771   3.022   3.995   1.554
 2254SOL    HW2 6772   3.050   3.979   1.394
 2255SOL     OW 6773   1.902   4.268   1.114
 2255SOL    HW1 6774   1.987   4.235   1.073
 2255SOL    HW2 6775   1.915   4.283   1.212
 2256SOL     OW 6776   2.051   4.244   1.722
 2256SOL    HW1 6777   2.110   4.204   1.652
 2256SOL    HW2 6778   1.993   4.315   1.681
 2257SOL     OW 6779   2.677   4.296   0.325
 2257SOL    HW1 6780   2.684   4.207   0.279
 2257SOL    HW2 6781   2.583   4.330   0.317
 2258SOL     OW 6782   3.519   4.328   1.206
 2258SOL    HW1 6783   3.481   4.259   1.268
 2258SOL    HW2 6784   3.601   4.292   1.162
 2259SOL     OW 6785   2.533   4.188   1.269
 2259SOL    HW1 6786   2.499   4.099   1.239
 2259SOL    HW2 6787   2.559   4.242   1.189
 2260SOL     OW 6788   2.335   4.224   0.191
 2260SOL    HW1 6789   2.396   4.304   0.195
 2260SOL    HW2 6790   2.240   4.255   0.198
 2261SOL     OW 6791   2.765   3.810   0.133
 2261SOL    HW1 6792   2.816   3.811   0.047
 2261SOL    HW2 6793   2.821   3.768   0.204
 2262SOL     OW 6794   3.588   3.859   0.523
 2262SOL    HW1 6795   3.661   3.842   0.456
 2262SOL    HW2 6796   3.557   3.772   0.561
 2263SOL     OW 6797   3.142   4.651   0.672
 2263SOL    HW1 6798   3.202   4.570   0.674
 2263SOL    HW2 6799   3.182   4.720   0.612
 2264SOL     OW 6800   3.703   3.899   0.963
 2264SOL    HW1 6801   3.742   3.814   0.927
 2264SOL    HW2 6802   3.605   3.901   0.944
 2265SOL     OW 6803   2.125   4.050   0.720
 2265SOL    HW1 6804   2.046   4.101   0.686
 2265SOL    HW2 6805   2.116   4.035   0.818
 2266SOL     OW 6806   2.876   3.960   0.971
 2266SOL    HW1 6807   2.868   3.924   0.878
 2266SOL    HW2 6808   2.874   3.884   1.036
 2267SOL     OW 6809   3.571   4.109   1.381
 2267SOL    HW1 6810   3.644   4.178   1.385
 2267SOL    HW2 6811   3.599   4.034   1.322
 2268SOL     OW 6812   2.534   3.927   1.489
 2268SOL    HW1 6813   2.624   3.911   1.449
 2268SOL    HW2 6814   2.542   3.932   1.588
 2269SOL     OW 6815   1.937   4.069   0.033
 2269SOL    HW1 6816   1.845   4.041   0.004
 2269SOL    HW2 6817   1.968   4.146  -0.023
 2270SOL     OW 6818   2.578   4.289   1.708
 2270SOL    HW1 6819   2.597   4.354   1.782
 2270SOL    HW2 6820   2.638   4.209   1.717
 2271SOL     OW 6821   3.087   4.049   0.449
 2271SOL    HW1 6822   3.152   3.975   0.438
 2271SOL    HW2 6823   3.107   4.099   0.533
 2272SOL     OW 6824   3.639   4.066   1.642
 2272SOL    HW1 6825   3.622   4.097   1.548
 2272SOL    HW2 6826   3.555   4.029   1.680
 2273SOL     OW 6827   2.945   4.708   0.087
 2273SOL    HW1 6828   2.922   4.761   0.005
 2273SOL    HW2 6829   3.026   4.652   0.068
 2274SOL     OW 6830   3.686   3.916   1.227
 2274SOL    HW1 6831   3.682   3.826   1.271
 2274SOL    HW2 6832   3.689   3.905   1.128
 2275SOL     OW 6833   2.290   4.148   0.520
 2275SOL    HW1 6834   2.320   4.076   0.458
 2275SOL    HW2 6835   2.251   4.108   0.603
 2276SOL     OW 6836   2.179   4.271   1.280
 2276SOL    HW1 6837   2.217   4.212   1.352
 2276SOL    HW2 6838   2.219   4.245   1.192
 2277SOL     OW 6839   3.286   3.938   1.112
 2277SOL    HW1 6840   3.338   3.873   1.167
 2277SOL    HW2 6841   3.237   4.001   1.173
 2278SOL     OW 6842   2.863   3.758   1.154
 2278SOL    HW1 6843   2.800   3.686   1.123
 2278SOL    HW2 6844   2.956   3.722   1.154
 2279SOL     OW 6845   3.214   3.776   0.168
 2279SOL    HW1 6846   3.249   3.735   0.084
 2279SOL    HW2 6847   3.124   3.738   0.188
 2280SOL     OW 6848   3.162   4.177   0.691
 2280SOL    HW1 6849   3.103   4.257   0.695
 2280SOL    HW2 6850   3.177   4.142   0.784
 2281SOL     OW 6851   3.455   3.945   0.882
 2281SOL    HW1 6852   3.371   3.944   0.936
 2281SOL    HW2 6853   3.457   4.028   0.826
 2282SOL     OW 6854   2.087   3.999   2.858
 2282SOL    HW1 6855   2.122   3.982   2.950
 2282SOL    HW2 6856   1.999   3.954   2.846
 2283SOL     OW 6857   1.881   4.092   2.509
 2283SOL    HW1 6858   1.799   4.135   2.548
 2283SOL    HW2 6859   1.853   4.019   2.446
 2284SOL     OW 6860   3.617   4.331   2.093
 2284SOL    HW1 6861   3.605   4.318   1.994
 2284SOL    HW2 6862   3.587   4.250   2.142
 2285SOL     OW 6863   2.300   4.116   3.361
 2285SOL    HW1 6864   2.382   4.060   3.370
 2285SOL    HW2 6865   2.219   4.058   3.365
 2286SOL     OW 6866   3.465   4.171   2.599
 2286SOL    HW1 6867   3.391   4.217   2.549
 2286SOL    HW2 6868   3.516   4.239   2.652
 2287SOL     OW 6869   3.456   3.838   3.342
 2287SOL    HW1 6870   3.438   3.905   3.270
 2287SOL    HW2 6871   3.453   3.884   3.431
 2288SOL     OW 6872   1.984   4.367   2.425
 2288SOL    HW1 6873   1.939   4.279   2.442
 2288SOL    HW2 6874   1.983   4.421   2.509
 2289SOL     OW 6875   1.975   4.461   3.459
 2289SOL    HW1 6876   2.063   4.448   3.504
 2289SOL    HW2 6877   1.962   4.558   3.437
 2290SOL     OW 6878   2.671   3.728   2.364
 2290SOL    HW1 6879   2.711   3.819   2.355
 2290SOL    HW2 6880   2.571   3.736   2.370
 2291SOL     OW 6881   2.179   3.975   3.663
 2291SOL    HW1 6882   2.250   4.046   3.669
 2291SOL    HW2 6883   2.091   4.014   3.691
 2292SOL     OW 6884   3.143   4.069   2.806
 2292SOL    HW1 6885   3.057   4.019   2.793
 2292SOL    HW2 6886   3.205   4.015   2.862
 2293SOL     OW 6887   2.669   4.329   3.327
 2293SOL    HW1 6888   2.622   4.326   3.416
 2293SOL    HW2 6889   2.618   4.274   3.261
 2294SOL     OW 6890   3.256   4.193   3.536
 2294SOL    HW1 6891   3.236   4.236   3.624
 2294SOL    HW2 6892   3.334   4.131   3.545
 2295SOL     OW 6893   2.853   4.134   3.104
 2295SOL    HW1 6894   2.776   4.168   3.158
 2295SOL    HW2 6895   2.819   4.083   3.025
 2296SOL     OW 6896   2.903   4.425   2.291
 2296SOL    HW1 6897   2.929   4.421   2.387
 2296SOL    HW2 6898   2.818   4.374   2.277
 2297SOL     OW 6899   2.727   4.072   2.057
 2297SOL    HW1 6900   2.786   4.135   2.008
 2297SOL    HW2 6901   2.746   3.978   2.028
 2298SOL     OW 6902   3.581   4.309   3.693
 2298SOL    HW1 6903   3.555   4.398   3.657
 2298SOL    HW2 6904   3.579   4.241   3.620
 2299SOL     OW 6905   2.412   3.920   2.747
 2299SOL    HW1 6906   2.407   3.915   2.847
 2299SOL    HW2 6907   2.414   4.016   2.718
 2300SOL     OW 6908   3.320   4.459   2.590
 2300SOL    HW1 6909   3.315   4.394   2.665
 2300SOL    HW2 6910   3.400   4.518   2.603
 2301SOL     OW 6911   2.064   4.009   3.360
 2301SOL    HW1 6912   1.984   4.069   3.347
 2301SOL    HW2 6913   2.054   3.960   3.446
 2302SOL     OW 6914   3.262   3.831   2.288
 2302SOL    HW1 6915   3.238   3.794   2.198
 2302SOL    HW2 6916   3.361   3.847   2.292
 2303SOL     OW 6917   3.409   3.946   3.591
 2303SOL    HW1 6918   3.404   3.983   3.683
 2303SOL    HW2 6919   3.337   3.877   3.579
 2304SOL     OW 6920   2.476   3.846   1.979
 2304SOL    HW1 6921   2.574   3.824   1.986
 2304SOL    HW2 6922   2.445   3.829   1.886
 2305SOL     OW 6923   2.643   3.988   3.611
 2305SOL    HW1 6924   2.710   3.927   3.654
 2305SOL    HW2 6925   2.570   4.007   3.676
 2306SOL     OW 6926   3.213   4.314   3.295
 2306SOL    HW1 6927   3.241   4.271   3.380
 2306SOL    HW2 6928   3.238   4.410   3.296
 2307SOL     OW 6929   2.784   4.227   2.761
 2307SOL    HW1 6930   2.759   4.218   2.665
 2307SOL    HW2 6931   2.832   4.145   2.792
 2308SOL     OW 6932   2.401   3.788   2.374
 2308SOL    HW1 6933   2.320   3.789   2.432
 2308SOL    HW2 6934   2.404   3.871   2.319
 2309SOL     OW 6935   2.159   3.759   2.033
 2309SOL    HW1 6936   2.208   3.843   2.012
 2309SOL    HW2 6937   2.221   3.694   2.078
 2310SOL     OW 6938   2.797   3.960   2.342
 2310SOL    HW1 6939   2.749   4.001   2.264
 2310SOL    HW2 6940   2.896   3.958   2.323
 2311SOL     OW 6941   2.938   4.407   3.326
 2311SOL    HW1 6942   2.858   4.346   3.329
 2311SOL    HW2 6943   3.019   4.354   3.302
 2312SOL     OW 6944   2.894   4.273   1.878
 2312SOL    HW1 6945   2.853   4.355   1.839
 2312SOL    HW2 6946   2.958   4.299   1.951
 2313SOL     OW 6947   1.940   4.280   3.248
 2313SOL    HW1 6948   2.032   4.279   3.207
 2313SOL    HW2 6949   1.934   4.354   3.315
 2314SOL     OW 6950   2.423   3.946   3.009
 2314SOL    HW1 6951   2.461   3.862   3.046
 2314SOL    HW2 6952   2.335   3.965   3.053
 2315SOL     OW 6953   2.728   4.178   2.504
 2315SOL    HW1 6954   2.696   4.250   2.442
 2315SOL    HW2 6955   2.752   4.097   2.451
 2316SOL     OW 6956   2.879   3.763   2.615
 2316SOL    HW1 6957   2.807   3.768   2.546
 2316SOL    HW2 6958   2.855   3.694   2.684
 2317SOL     OW 6959   3.328   4.314   2.854
 2317SOL    HW1 6960   3.298   4.219   2.861
 2317SOL    HW2 6961   3.401   4.330   2.920
 2318SOL     OW 6962   2.389   3.980   2.190
 2318SOL    HW1 6963   2.416   3.921   2.115
 2318SOL    HW2 6964   2.389   4.075   2.159
 2319SOL     OW 6965   2.777   3.813   3.264
 2319SOL    HW1 6966   2.802   3.793   3.169
 2319SOL    HW2 6967   2.849   3.869   3.306
 2320SOL     OW 6968   3.136   4.110   3.124
 2320SOL    HW1 6969   3.157   4.184   3.188
 2320SOL    HW2 6970   3.047   4.127   3.081
 2321SOL     OW 6971   2.428   4.261   2.727
 2321SOL    HW1 6972   2.440   4.327   2.653
 2321SOL    HW2 6973   2.474   4.295   2.810
 2322SOL     OW 6974   3.444   4.363   2.334
 2322SOL    HW1 6975   3.413   4.424   2.407
 2322SOL    HW2 6976   3.494   4.415   2.265
 2323SOL     OW 6977   2.875   3.829   3.632
 2323SOL    HW1 6978   2.881   3.914   3.580
 2323SOL    HW2 6979   2.907   3.753   3.575
 2324SOL     OW 6980   2.366   3.774   3.602
 2324SOL    HW1 6981   2.324   3.717   3.532
 2324SOL    HW2 6982   2.300   3.843   3.634
 2325SOL     OW 6983   3.071   4.249   2.137
 2325SOL    HW1 6984   3.084   4.165   2.191
 2325SOL    HW2 6985   3.042   4.323   2.197
 2326SOL     OW 6986   2.169   3.937   3.093
 2326SOL    HW1 6987   2.146   3.974   3.183
 2326SOL    HW2 6988   2.139   3.842   3.087
 2327SOL     OW 6989   2.594   4.358   2.926
 2327SOL    HW1 6990   2.653   4.332   2.850
 2327SOL    HW2 6991   2.566   4.454   2.915
 2328SOL     OW 6992   2.169   3.787   2.480
 2328SOL    HW1 6993   2.158   3.881   2.513
 2328SOL    HW2 6994   2.164   3.724   2.557
 2329SOL     OW 6995   3.484   4.091   2.236
 2329SOL    HW1 6996   3.486   4.015   2.300
 2329SOL    HW2 6997   3.436   4.168   2.276
 2330SOL     OW 6998   3.402   3.998   1.987
 2330SOL    HW1 6999   3.341   3.923   2.010
 2330SOL    HW2 7000   3.424   4.050   2.070
 2331SOL     OW 7001   2.181   4.534   2.811
 2331SOL    HW1 7002   2.274   4.570   2.816
 2331SOL    HW2 7003   2.175   4.449   2.863
 2332SOL     OW 7004   2.201   4.233   2.868
 2332SOL    HW1 7005   2.149   4.150   2.851
 2332SOL    HW2 7006   2.278   4.238   2.804
 2333SOL     OW 7007   3.000   4.104   3.540
 2333SOL    HW1 7008   2.955   4.167   3.604
 2333SOL    HW2 7009   3.093   4.135   3.523
 2334SOL     OW 7010   3.022   3.931   3.339
 2334SOL    HW1 7011   3.022   3.995   3.416
 2334SOL    HW2 7012   3.050   3.979   3.256
 2335SOL     OW 7013   1.902   4.268   2.976
 2335SOL    HW1 7014   1.987   4.235   2.935
 2335SOL    HW2 7015   1.915   4.283   3.074
 2336SOL     OW 7016   2.051   4.244   3.584
 2336SOL    HW1 7017   2.110   4.204   3.514
 2336SOL    HW2 7018   1.993   4.315   3.543
 2337SOL     OW 7019   2.677   4.296   2.187
 2337SOL    HW1 7020   2.684   4.207   2.141
 2337SOL    HW2 7021   2.583   4.330   2.179
 2338SOL     OW 7022   3.519   4.328   3.068
 2338SOL    HW1 7023   3.481   4.259   3.130
 2338SOL    HW2 7024   3.601   4.292   3.024
 2339SOL     OW 7025   2.533   4.188   3.131
 2339SOL    HW1 7026   2.499   4.099   3.101
 2339SOL    HW2 7027   2.559   4.242   3.051
 2340SOL     OW 7028   2.335   4.224   2.053
 2340SOL    HW1 7029   2.396   4.304   2.057
 2340SOL    HW2 7030   2.240   4.255   2.060
 2341SOL     OW 7031   3.588   3.859   2.385
 2341SOL    HW1 7032   3.661   3.842   2.318
 2341SOL    HW2 7033   3.557   3.772   2.423
 2342SOL     OW 7034   3.142   4.651   2.534
 2342SOL    HW1 7035   3.202   4.570   2.536
 2342SOL    HW2 7036   3.182   4.720   2.474
 2343SOL     OW 7037   3.703   3.899   2.825
 2343SOL    HW1 7038   3.742   3.814   2.789
 2343SOL    HW2 7039   3.605   3.901   2.806
 2344SOL     OW 7040   2.125   4.050   2.582
 2344SOL    HW1 7041   2.046   4.101   2.548
 2344SOL    HW2 7042   2.116   4.035   2.680
 2345SOL     OW 7043   2.876   3.960   2.833
 2345SOL    HW1 7044   2.868   3.924   2.740
 2345SOL    HW2 7045   2.874   3.884   2.898
 2346SOL     OW 7046   3.571   4.109   3.243
 2346SOL    HW1 7047   3.644   4.178   3.247
 2346SOL    HW2 7048   3.599   4.034   3.184
 2347SOL     OW 7049   2.534   3.927   3.351
 2347SOL    HW1 7050   2.624   3.911   3.311
 2347SOL    HW2 7051   2.542   3.932   3.450
 2348SOL     OW 7052   1.937   4.069   1.895
 2348SOL    HW1 7053   1.845   4.041   1.866
 2348SOL    HW2 7054   1.968   4.146   1.839
 2349SOL     OW 7055   1.934   3.890   2.180
 2349SOL    HW1 7056   1.917   3.973   2.126
 2349SOL    HW2 7057   2.024   3.853   2.158
 2350SOL     OW 7058   2.578   4.289   3.570
 2350SOL    HW1 7059   2.597   4.354   3.644
 2350SOL    HW2 7060   2.638   4.209   3.579
 2351SOL     OW 7061   3.087   4.049   2.311
 2351SOL    HW1 7062   3.152   3.975   2.300
 2351SOL    HW2 7063   3.107   4.099   2.395
 2352SOL     OW 7064   3.639   4.066   3.504
 2352SOL    HW1 7065   3.622   4.097   3.410
 2352SOL    HW2 7066   3.555   4.029   3.542
 2353SOL     OW 7067   2.945   4.708   1.949
 2353SOL    HW1 7068   2.922   4.761   1.867
 2353SOL    HW2 7069   3.026   4.652   1.930
 2354SOL     OW 7070   3.686   3.916   3.089
 2354SOL    HW1 7071   3.682   3.826   3.133
 2354SOL    HW2 7072   3.689   3.905   2.990
 2355SOL     OW 7073   2.290   4.148   2.382
 2355SOL    HW1 7074   2.320   4.076   2.320
 2355SOL    HW2 7075   2.251   4.108   2.465
 2356SOL     OW 7076   2.179   4.271   3.142
 2356SOL    HW1 7077   2.217   4.212   3.214
 2356SOL    HW2 7078   2.219   4.245   3.054
 2357SOL     OW 7079   3.286   3.938   2.974
 2357SOL    HW1 7080   3.338   3.873   3.029
 2357SOL    HW2 7081   3.237   4.001   3.035
 2358SOL     OW 7082   2.863   3.758   3.016
 2358SOL    HW1 7083   2.800   3.686   2.985
 2358SOL    HW2 7084   2.956   3.722   3.016
 2359SOL     OW 7085   3.214   3.776   2.030
 2359SOL    HW1 7086   3.249   3.735   1.946
 2359SOL    HW2 7087   3.124   3.738   2.050
 2360SOL     OW 7088   3.162   4.177   2.553
 2360SOL    HW1 7089   3.103   4.257   2.557
 2360SOL    HW2 7090   3.177   4.142   2.646
 2361SOL     OW 7091   3.455   3.945   2.744
 2361SOL    HW1 7092   3.371   3.944   2.798
 2361SOL    HW2 7093   3.457   4.028   2.688
 2362SOL     OW 7094   2.997   4.427   4.441
 2362SOL    HW1 7095   3.054   4.505   4.416
 2362SOL    HW2 7096   2.937   4.453   4.517
 2363SOL     OW 7097   3.617   4.331   3.955
 2363SOL    HW1 7098   3.605   4.318   3.856
 2363SOL    HW2 7099   3.587   4.250   4.004
 2364SOL     OW 7100   1.984   4.367   4.287
 2364SOL    HW1 7101   1.939   4.279   4.304
 2364SOL    HW2 7102   1.983   4.421   4.371
 2365SOL     OW 7103   2.671   3.728   4.226
 2365SOL    HW1 7104   2.711   3.819   4.217
 2365SOL    HW2 7105   2.571   3.736   4.232
 2366SOL     OW 7106   2.903   4.425   4.153
 2366SOL    HW1 7107   2.929   4.421   4.249
 2366SOL    HW2 7108   2.818   4.374   4.139
 2367SOL     OW 7109   2.727   4.072   3.919
 2367SOL    HW1 7110   2.786   4.135   3.870
 2367SOL    HW2 7111   2.746   3.978   3.890
 2368SOL     OW 7112   3.262   3.831   4.150
 2368SOL    HW1 7113   3.238   3.794   4.060
 2368SOL    HW2 7114   3.361   3.847   4.154
 2369SOL     OW 7115   2.476   3.846   3.841
 2369SOL    HW1 7116   2.574   3.824   3.848
 2369SOL    HW2 7117   2.445   3.829   3.748
 2370SOL     OW 7118   2.401   3.788   4.236
 2370SOL    HW1 7119   2.320   3.789   4.294
 2370SOL    HW2 7120   2.404   3.871   4.181
 2371SOL     OW 7121   2.159   3.759   3.895
 2371SOL    HW1 7122   2.208   3.843   3.874
 2371SOL    HW2 7123   2.221   3.694   3.940
 2372SOL     OW 7124   2.797   3.960   4.204
 2372SOL    HW1 7125   2.749   4.001   4.126
 2372SOL    HW2 7126   2.896   3.958   4.185
 2373SOL     OW 7127   2.894   4.273   3.740
 2373SOL    HW1 7128   2.853   4.355   3.701
 2373SOL    HW2 7129   2.958   4.299   3.813
 2374SOL     OW 7130   2.728   4.178   4.366
 2374SOL    HW1 7131   2.696   4.250   4.304
 2374SOL    HW2 7132   2.752   4.097   4.313
 2375SOL     OW 7133   2.389   3.980   4.052
 2375SOL    HW1 7134   2.416   3.921   3.977
 2375SOL    HW2 7135   2.389   4.075   4.021
 2376SOL     OW 7136   3.444   4.363   4.196
 2376SOL    HW1 7137   3.413   4.424   4.269
 2376SOL    HW2 7138   3.494   4.415   4.127
 2377SOL     OW 7139   3.071   4.249   3.999
 2377SOL    HW1 7140   3.084   4.165   4.053
 2377SOL    HW2 7141   3.042   4.323   4.059
 2378SOL     OW 7142   2.169   3.787   4.342
 2378SOL    HW1 7143   2.158   3.881   4.375
 2378SOL    HW2 7144   2.164   3.724   4.419
 2379SOL     OW 7145   3.484   4.091   4.098
 2379SOL    HW1 7146   3.486   4.015   4.162
 2379SOL    HW2 7147   3.436   4.168   4.138
 2380SOL     OW 7148   3.402   3.998   3.849
 2380SOL    HW1 7149   3.341   3.923   3.872
 2380SOL    HW2 7150   3.424   4.050   3.932
 2381SOL     OW 7151   2.677   4.296   4.049
 2381SOL    HW1 7152   2.684   4.207   4.003
 2381SOL    HW2 7153   2.583   4.330   4.041
 2382SOL     OW 7154   2.335   4.224   3.915
 2382SOL    HW1 7155   2.396   4.304   3.919
 2382SOL    HW2 7156   2.240   4.255   3.922
 2383SOL     OW 7157   3.588   3.859   4.247
 2383SOL    HW1 7158   3.661   3.842   4.180
 2383SOL    HW2 7159   3.557   3.772   4.285
 2384SOL     OW 7160   3.142   4.651   4.396
 2384SOL    HW1 7161   3.202   4.570   4.398
 2384SOL    HW2 7162   3.182   4.720   4.336
 2385SOL     OW 7163   3.703   3.899   4.687
 2385SOL    HW1 7164   3.742   3.814   4.651
 2385SOL    HW2 7165   3.605   3.901   4.668
 2386SOL     OW 7166   1.937   4.069   3.757
 2386SOL    HW1 7167   1.845   4.041   3.728
 2386SOL    HW2 7168   1.968   4.146   3.701
 2387SOL     OW 7169   1.934   3.890   4.042
 2387SOL    HW1 7170   1.917   3.973   3.988
 2387SOL    HW2 7171   2.024   3.853   4.020
 2388SOL     OW 7172   3.087   4.049   4.173
 2388SOL    HW1 7173   3.152   3.975   4.162
 2388SOL    HW2 7174   3.107   4.099   4.257
 2389SOL     OW 7175   2.945   4.708   3.811
 2389SOL    HW1 7176   2.922   4.761   3.729
 2389SOL    HW2 7177   3.026   4.652   3.792
 2390SOL     OW 7178   2.290   4.148   4.244
 2390SOL    HW1 7179   2.320   4.076   4.182
 2390SOL    HW2 7180   2.251   4.108   4.327
 2391SOL     OW 7181   3.214   3.776   3.892
 2391SOL    HW1 7182   3.249   3.735   3.808
 2391SOL    HW2 7183   3.124   3.738   3.912
 2392SOL     OW 7184   3.162   4.177   4.415
 2392SOL    HW1 7185   3.103   4.257   4.419
 2392SOL    HW2 7186   3.177   4.142   4.508
 2393SOL     OW 7187   3.954   0.628   0.113
 2393SOL    HW1 7188   3.861   0.626   0.150
 2393SOL    HW2 7189   3.955   0.589   0.021
 2394SOL     OW 7190   3.949   0.275   0.996
 2394SOL    HW1 7191   3.984   0.258   1.088
 2394SOL    HW2 7192   3.861   0.230   0.984
 2395SOL     OW 7193   3.743   0.368   0.647
 2395SOL    HW1 7194   3.661   0.411   0.686
 2395SOL    HW2 7195   3.715   0.295   0.584
 2396SOL     OW 7196   4.293   1.275   1.165
 2396SOL    HW1 7197   4.200   1.268   1.128
 2396SOL    HW2 7198   4.304   1.364   1.209
 2397SOL     OW 7199   4.574   0.798   1.823
 2397SOL    HW1 7200   4.570   0.874   1.888
 2397SOL    HW2 7201   4.596   0.834   1.732
 2398SOL     OW 7202   4.059   1.435   1.061
 2398SOL    HW1 7203   3.981   1.404   1.008
 2398SOL    HW2 7204   4.117   1.493   1.004
 2399SOL     OW 7205   4.162   0.392   1.499
 2399SOL    HW1 7206   4.244   0.336   1.508
 2399SOL    HW2 7207   4.081   0.334   1.503
 2400SOL     OW 7208   3.955   1.713   0.483
 2400SOL    HW1 7209   3.989   1.790   0.537
 2400SOL    HW2 7210   3.999   1.713   0.393
 2401SOL     OW 7211   3.954   1.434   0.538
 2401SOL    HW1 7212   3.928   1.530   0.538
 2401SOL    HW2 7213   3.883   1.380   0.583
 2402SOL     OW 7214   3.964   1.091   0.886
 2402SOL    HW1 7215   3.978   1.007   0.938
 2402SOL    HW2 7216   3.909   1.155   0.941
 2403SOL     OW 7217   4.330   0.964   0.123
 2403SOL    HW1 7218   4.337   1.048   0.069
 2403SOL    HW2 7219   4.376   0.977   0.211
 2404SOL     OW 7220   3.846   0.643   0.563
 2404SOL    HW1 7221   3.801   0.555   0.580
 2404SOL    HW2 7222   3.845   0.697   0.647
 2405SOL     OW 7223   3.751   1.596   0.117
 2405SOL    HW1 7224   3.732   1.500   0.138
 2405SOL    HW2 7225   3.718   1.654   0.192
 2406SOL     OW 7226   3.837   0.737   1.597
 2406SOL    HW1 7227   3.925   0.724   1.642
 2406SOL    HW2 7228   3.824   0.834   1.575
 2407SOL     OW 7229   4.337   1.365   0.726
 2407SOL    HW1 7230   4.288   1.278   0.735
 2407SOL    HW2 7231   4.314   1.408   0.639
 2408SOL     OW 7232   3.921   0.976   1.264
 2408SOL    HW1 7233   4.010   0.931   1.250
 2408SOL    HW2 7234   3.848   0.911   1.245
 2409SOL     OW 7235   4.041   0.251   1.801
 2409SOL    HW1 7236   4.112   0.322   1.807
 2409SOL    HW2 7237   3.953   0.290   1.829
 2410SOL     OW 7238   4.322   0.729   0.270
 2410SOL    HW1 7239   4.346   0.798   0.202
 2410SOL    HW2 7240   4.244   0.762   0.324
 2411SOL     OW 7241   3.800   0.811   0.789
 2411SOL    HW1 7242   3.899   0.799   0.798
 2411SOL    HW2 7243   3.776   0.906   0.810
 2412SOL     OW 7244   3.854   1.821   1.571
 2412SOL    HW1 7245   3.844   1.806   1.670
 2412SOL    HW2 7246   3.768   1.857   1.535
 2413SOL     OW 7247   4.274   0.196   0.885
 2413SOL    HW1 7248   4.269   0.191   0.985
 2413SOL    HW2 7249   4.276   0.292   0.856
 2414SOL     OW 7250   4.075   1.801   0.853
 2414SOL    HW1 7251   4.125   1.715   0.859
 2414SOL    HW2 7252   4.140   1.878   0.850
 2415SOL     OW 7253   4.045   0.943   0.242
 2415SOL    HW1 7254   4.127   0.982   0.200
 2415SOL    HW2 7255   4.018   0.861   0.193
 2416SOL     OW 7256   4.185   1.266   1.727
 2416SOL    HW1 7257   4.135   1.267   1.641
 2416SOL    HW2 7258   4.122   1.248   1.803
 2417SOL     OW 7259   3.926   0.285   1.498
 2417SOL    HW1 7260   3.846   0.345   1.485
 2417SOL    HW2 7261   3.916   0.236   1.584
 2418SOL     OW 7262   4.188   1.743   0.323
 2418SOL    HW1 7263   4.221   1.782   0.409
 2418SOL    HW2 7264   4.264   1.736   0.258
 2419SOL     OW 7265   3.973   1.785   1.241
 2419SOL    HW1 7266   4.030   1.720   1.291
 2419SOL    HW2 7267   3.957   1.752   1.148
 2420SOL     OW 7268   4.106   0.700   0.480
 2420SOL    HW1 7269   4.151   0.610   0.477
 2420SOL    HW2 7270   4.012   0.689   0.513
 2421SOL     OW 7271   4.527   1.402   0.924
 2421SOL    HW1 7272   4.617   1.416   0.882
 2421SOL    HW2 7273   4.456   1.404   0.853
 2422SOL     OW 7274   4.263   0.064   0.512
 2422SOL    HW1 7275   4.182   0.065   0.570
 2422SOL    HW2 7276   4.266   0.147   0.457
 2423SOL     OW 7277   4.021   0.035   0.171
 2423SOL    HW1 7278   4.070   0.119   0.150
 2423SOL    HW2 7279   4.083  -0.030   0.216
 2424SOL     OW 7280   4.659   0.236   0.480
 2424SOL    HW1 7281   4.611   0.277   0.402
 2424SOL    HW2 7282   4.758   0.234   0.461
 2425SOL     OW 7283   4.183   1.152   0.741
 2425SOL    HW1 7284   4.112   1.125   0.806
 2425SOL    HW2 7285   4.157   1.124   0.648
 2426SOL     OW 7286   3.802   0.556   1.386
 2426SOL    HW1 7287   3.894   0.555   1.345
 2426SOL    HW2 7288   3.796   0.630   1.453
 2427SOL     OW 7289   4.285   0.222   1.147
 2427SOL    HW1 7290   4.323   0.138   1.184
 2427SOL    HW2 7291   4.197   0.241   1.191
 2428SOL     OW 7292   4.251   0.256   0.328
 2428SOL    HW1 7293   4.278   0.197   0.253
 2428SOL    HW2 7294   4.251   0.351   0.297
 2429SOL     OW 7295   4.134   0.813   1.251
 2429SOL    HW1 7296   4.220   0.825   1.301
 2429SOL    HW2 7297   4.092   0.726   1.278
 2430SOL     OW 7298   3.788   1.564   1.331
 2430SOL    HW1 7299   3.742   1.646   1.297
 2430SOL    HW2 7300   3.886   1.583   1.340
 2431SOL     OW 7301   4.091   1.100   0.501
 2431SOL    HW1 7302   4.084   1.183   0.445
 2431SOL    HW2 7303   4.095   1.020   0.441
 2432SOL     OW 7304   4.290   0.537   0.865
 2432SOL    HW1 7305   4.302   0.603   0.791
 2432SOL    HW2 7306   4.336   0.571   0.948
 2433SOL     OW 7307   4.078   1.510   1.329
 2433SOL    HW1 7308   4.057   1.466   1.242
 2433SOL    HW2 7309   4.175   1.536   1.332
 2434SOL     OW 7310   4.126   0.751   1.598
 2434SOL    HW1 7311   4.194   0.806   1.551
 2434SOL    HW2 7312   4.166   0.663   1.625
 2435SOL     OW 7313   4.228   0.050   1.740
 2435SOL    HW1 7314   4.186  -0.007   1.670
 2435SOL    HW2 7315   4.162   0.119   1.772
 2436SOL     OW 7316   4.297   0.870   1.029
 2436SOL    HW1 7317   4.341   0.959   1.020
 2436SOL    HW2 7318   4.234   0.870   1.106
 2437SOL     OW 7319   4.031   0.213   1.231
 2437SOL    HW1 7320   4.008   0.250   1.321
 2437SOL    HW2 7321   4.001   0.118   1.225
 2438SOL     OW 7322   3.761   1.310   1.282
 2438SOL    HW1 7323   3.814   1.261   1.350
 2438SOL    HW2 7324   3.783   1.408   1.287
 2439SOL     OW 7325   4.031   0.063   0.618
 2439SOL    HW1 7326   4.020   0.157   0.651
 2439SOL    HW2 7327   4.026   0.000   0.695
 2440SOL     OW 7328   4.074   0.898   1.804
 2440SOL    HW1 7329   4.150   0.942   1.852
 2440SOL    HW2 7330   4.109   0.851   1.722
 2441SOL     OW 7331   4.043   0.810   0.949
 2441SOL    HW1 7332   4.136   0.846   0.954
 2441SOL    HW2 7333   4.037   0.725   1.001
 2442SOL     OW 7334   4.063   0.509   1.006
 2442SOL    HW1 7335   4.011   0.426   0.989
 2442SOL    HW2 7336   4.140   0.514   0.942
 2443SOL     OW 7337   3.732   1.326   0.200
 2443SOL    HW1 7338   3.639   1.347   0.169
 2443SOL    HW2 7339   3.742   1.227   0.213
 2444SOL     OW 7340   3.812   1.801   0.927
 2444SOL    HW1 7341   3.770   1.715   0.900
 2444SOL    HW2 7342   3.906   1.804   0.893
 2445SOL     OW 7343   4.228   1.568   0.910
 2445SOL    HW1 7344   4.294   1.642   0.919
 2445SOL    HW2 7345   4.272   1.489   0.868
 2446SOL     OW 7346   3.764   0.544   1.114
 2446SOL    HW1 7347   3.849   0.511   1.073
 2446SOL    HW2 7348   3.777   0.559   1.212
 2447SOL     OW 7349   3.913   0.520   1.722
 2447SOL    HW1 7350   3.972   0.480   1.652
 2447SOL    HW2 7351   3.855   0.591   1.681
 2448SOL     OW 7352   4.539   0.572   0.325
 2448SOL    HW1 7353   4.546   0.483   0.279
 2448SOL    HW2 7354   4.445   0.606   0.317
 2449SOL     OW 7355   3.976   1.564   1.744
 2449SOL    HW1 7356   3.946   1.621   1.820
 2449SOL    HW2 7357   3.969   1.467   1.770
 2450SOL     OW 7358   4.197   0.500   0.191
 2450SOL    HW1 7359   4.258   0.580   0.195
 2450SOL    HW2 7360   4.102   0.531   0.198
 2451SOL     OW 7361   3.883   1.137   1.466
 2451SOL    HW1 7362   3.905   1.076   1.542
 2451SOL    HW2 7363   3.893   1.088   1.380
 2452SOL     OW 7364   3.807   1.258   1.022
 2452SOL    HW1 7365   3.802   1.257   1.122
 2452SOL    HW2 7366   3.724   1.217   0.984
 2453SOL     OW 7367   4.412   1.662   1.716
 2453SOL    HW1 7368   4.356   1.743   1.725
 2453SOL    HW2 7369   4.464   1.666   1.630
 2454SOL     OW 7370   3.854   1.794   1.851
 2454SOL    HW1 7371   3.813   1.720   1.904
 2454SOL    HW2 7372   3.918   1.845   1.909
 2455SOL     OW 7373   3.987   0.326   0.720
 2455SOL    HW1 7374   3.908   0.377   0.686
 2455SOL    HW2 7375   3.978   0.311   0.818
 2456SOL     OW 7376   4.096   1.288   1.490
 2456SOL    HW1 7377   4.083   1.381   1.456
 2456SOL    HW2 7378   4.012   1.236   1.477
 2457SOL     OW 7379   4.314   1.487   0.491
 2457SOL    HW1 7380   4.356   1.429   0.421
 2457SOL    HW2 7381   4.270   1.566   0.447
 2458SOL     OW 7382   3.979   1.348   0.290
 2458SOL    HW1 7383   3.883   1.349   0.263
 2458SOL    HW2 7384   3.991   1.401   0.374
 2459SOL     OW 7385   3.829   1.013   1.726
 2459SOL    HW1 7386   3.752   0.980   1.780
 2459SOL    HW2 7387   3.914   0.983   1.768
 2460SOL     OW 7388   4.396   0.203   1.489
 2460SOL    HW1 7389   4.486   0.187   1.449
 2460SOL    HW2 7390   4.404   0.208   1.588
 2461SOL     OW 7391   3.799   0.345   0.033
 2461SOL    HW1 7392   3.707   0.317   0.004
 2461SOL    HW2 7393   3.830   0.422  -0.023
 2462SOL     OW 7394   4.337   0.842   1.431
 2462SOL    HW1 7395   4.393   0.923   1.414
 2462SOL    HW2 7396   4.396   0.762   1.434
 2463SOL     OW 7397   4.114   1.741   1.560
 2463SOL    HW1 7398   4.023   1.782   1.558
 2463SOL    HW2 7399   4.107   1.647   1.592
 2464SOL     OW 7400   4.318   0.745   0.652
 2464SOL    HW1 7401   4.368   0.830   0.633
 2464SOL    HW2 7402   4.230   0.747   0.604
 2465SOL     OW 7403   3.945   1.314   1.844
 2465SOL    HW1 7404   3.880   1.241   1.823
 2465SOL    HW2 7405   3.949   1.328   1.942
 2466SOL     OW 7406   3.803   1.240   0.653
 2466SOL    HW1 7407   3.802   1.193   0.741
 2466SOL    HW2 7408   3.885   1.212   0.602
 2467SOL     OW 7409   4.396   1.391   1.624
 2467SOL    HW1 7410   4.318   1.341   1.662
 2467SOL    HW2 7411   4.393   1.486   1.655
 2468SOL     OW 7412   4.152   0.424   0.520
 2468SOL    HW1 7413   4.182   0.352   0.458
 2468SOL    HW2 7414   4.113   0.384   0.603
 2469SOL     OW 7415   4.041   0.547   1.280
 2469SOL    HW1 7416   4.079   0.488   1.352
 2469SOL    HW2 7417   4.081   0.521   1.192
 2470SOL     OW 7418   3.763   1.077   0.300
 2470SOL    HW1 7419   3.862   1.066   0.291
 2470SOL    HW2 7420   3.723   0.991   0.332
 2471SOL     OW 7421   3.954   0.628   1.975
 2471SOL    HW1 7422   3.861   0.626   2.012
 2471SOL    HW2 7423   3.955   0.589   1.883
 2472SOL     OW 7424   3.949   0.275   2.858
 2472SOL    HW1 7425   3.984   0.258   2.950
 2472SOL    HW2 7426   3.861   0.230   2.846
 2473SOL     OW 7427   3.743   0.368   2.509
 2473SOL    HW1 7428   3.661   0.411   2.548
 2473SOL    HW2 7429   3.715   0.295   2.446
 2474SOL     OW 7430   4.293   1.275   3.027
 2474SOL    HW1 7431   4.200   1.268   2.990
 2474SOL    HW2 7432   4.304   1.364   3.071
 2475SOL     OW 7433   4.574   0.798   3.685
 2475SOL    HW1 7434   4.570   0.874   3.750
 2475SOL    HW2 7435   4.596   0.834   3.594
 2476SOL     OW 7436   4.059   1.435   2.923
 2476SOL    HW1 7437   3.981   1.404   2.870
 2476SOL    HW2 7438   4.117   1.493   2.866
 2477SOL     OW 7439   4.162   0.392   3.361
 2477SOL    HW1 7440   4.244   0.336   3.370
 2477SOL    HW2 7441   4.081   0.334   3.365
 2478SOL     OW 7442   3.955   1.713   2.345
 2478SOL    HW1 7443   3.989   1.790   2.399
 2478SOL    HW2 7444   3.999   1.713   2.255
 2479SOL     OW 7445   3.954   1.434   2.400
 2479SOL    HW1 7446   3.928   1.530   2.400
 2479SOL    HW2 7447   3.883   1.380   2.445
 2480SOL     OW 7448   3.964   1.091   2.748
 2480SOL    HW1 7449   3.978   1.007   2.800
 2480SOL    HW2 7450   3.909   1.155   2.803
 2481SOL     OW 7451   4.330   0.964   1.985
 2481SOL    HW1 7452   4.337   1.048   1.931
 2481SOL    HW2 7453   4.376   0.977   2.073
 2482SOL     OW 7454   3.846   0.643   2.425
 2482SOL    HW1 7455   3.801   0.555   2.442
 2482SOL    HW2 7456   3.845   0.697   2.509
 2483SOL     OW 7457   3.751   1.596   1.979
 2483SOL    HW1 7458   3.732   1.500   2.000
 2483SOL    HW2 7459   3.718   1.654   2.054
 2484SOL     OW 7460   3.837   0.737   3.459
 2484SOL    HW1 7461   3.925   0.724   3.504
 2484SOL    HW2 7462   3.824   0.834   3.437
 2485SOL     OW 7463   4.337   1.365   2.588
 2485SOL    HW1 7464   4.288   1.278   2.597
 2485SOL    HW2 7465   4.314   1.408   2.501
 2486SOL     OW 7466   3.921   0.976   3.126
 2486SOL    HW1 7467   4.010   0.931   3.112
 2486SOL    HW2 7468   3.848   0.911   3.107
 2487SOL     OW 7469   4.041   0.251   3.663
 2487SOL    HW1 7470   4.112   0.322   3.669
 2487SOL    HW2 7471   3.953   0.290   3.691
 2488SOL     OW 7472   4.322   0.729   2.132
 2488SOL    HW1 7473   4.346   0.798   2.064
 2488SOL    HW2 7474   4.244   0.762   2.186
 2489SOL     OW 7475   3.800   0.811   2.651
 2489SOL    HW1 7476   3.899   0.799   2.660
 2489SOL    HW2 7477   3.776   0.906   2.672
 2490SOL     OW 7478   3.854   1.821   3.433
 2490SOL    HW1 7479   3.844   1.806   3.532
 2490SOL    HW2 7480   3.768   1.857   3.397
 2491SOL     OW 7481   4.274   0.196   2.747
 2491SOL    HW1 7482   4.269   0.191   2.847
 2491SOL    HW2 7483   4.276   0.292   2.718
 2492SOL     OW 7484   4.075   1.801   2.715
 2492SOL    HW1 7485   4.125   1.715   2.721
 2492SOL    HW2 7486   4.140   1.878   2.712
 2493SOL     OW 7487   4.045   0.943   2.104
 2493SOL    HW1 7488   4.127   0.982   2.062
 2493SOL    HW2 7489   4.018   0.861   2.055
 2494SOL     OW 7490   4.185   1.266   3.589
 2494SOL    HW1 7491   4.135   1.267   3.503
 2494SOL    HW2 7492   4.122   1.248   3.665
 2495SOL     OW 7493   3.926   0.285   3.360
 2495SOL    HW1 7494   3.846   0.345   3.347
 2495SOL    HW2 7495   3.916   0.236   3.446
 2496SOL     OW 7496   4.188   1.743   2.185
 2496SOL    HW1 7497   4.221   1.782   2.271
 2496SOL    HW2 7498   4.264   1.736   2.120
 2497SOL     OW 7499   3.973   1.785   3.103
 2497SOL    HW1 7500   4.030   1.720   3.153
 2497SOL    HW2 7501   3.957   1.752   3.010
 2498SOL     OW 7502   4.106   0.700   2.342
 2498SOL    HW1 7503   4.151   0.610   2.339
 2498SOL    HW2 7504   4.012   0.689   2.375
 2499SOL     OW 7505   4.338   0.122   1.979
 2499SOL    HW1 7506   4.436   0.100   1.986
 2499SOL    HW2 7507   4.307   0.105   1.886
 2500SOL     OW 7508   4.527   1.402   2.786
 2500SOL    HW1 7509   4.617   1.416   2.744
 2500SOL    HW2 7510   4.456   1.404   2.715
 2501SOL     OW 7511   4.263   0.064   2.374
 2501SOL    HW1 7512   4.182   0.065   2.432
 2501SOL    HW2 7513   4.266   0.147   2.319
 2502SOL     OW 7514   4.021   0.035   2.033
 2502SOL    HW1 7515   4.070   0.119   2.012
 2502SOL    HW2 7516   4.083  -0.030   2.078
 2503SOL     OW 7517   4.659   0.236   2.342
 2503SOL    HW1 7518   4.611   0.277   2.264
 2503SOL    HW2 7519   4.758   0.234   2.323
 2504SOL     OW 7520   4.183   1.152   2.603
 2504SOL    HW1 7521   4.112   1.125   2.668
 2504SOL    HW2 7522   4.157   1.124   2.510
 2505SOL     OW 7523   3.802   0.556   3.248
 2505SOL    HW1 7524   3.894   0.555   3.207
 2505SOL    HW2 7525   3.796   0.630   3.315
 2506SOL     OW 7526   4.285   0.222   3.009
 2506SOL    HW1 7527   4.323   0.138   3.046
 2506SOL    HW2 7528   4.197   0.241   3.053
 2507SOL     OW 7529   4.251   0.256   2.190
 2507SOL    HW1 7530   4.278   0.197   2.115
 2507SOL    HW2 7531   4.251   0.351   2.159
 2508SOL     OW 7532   4.134   0.813   3.113
 2508SOL    HW1 7533   4.220   0.825   3.163
 2508SOL    HW2 7534   4.092   0.726   3.140
 2509SOL     OW 7535   3.788   1.564   3.193
 2509SOL    HW1 7536   3.742   1.646   3.159
 2509SOL    HW2 7537   3.886   1.583   3.202
 2510SOL     OW 7538   4.091   1.100   2.363
 2510SOL    HW1 7539   4.084   1.183   2.307
 2510SOL    HW2 7540   4.095   1.020   2.303
 2511SOL     OW 7541   4.290   0.537   2.727
 2511SOL    HW1 7542   4.302   0.603   2.653
 2511SOL    HW2 7543   4.336   0.571   2.810
 2512SOL     OW 7544   4.078   1.510   3.191
 2512SOL    HW1 7545   4.057   1.466   3.104
 2512SOL    HW2 7546   4.175   1.536   3.194
 2513SOL     OW 7547   4.126   0.751   3.460
 2513SOL    HW1 7548   4.194   0.806   3.413
 2513SOL    HW2 7549   4.166   0.663   3.487
 2514SOL     OW 7550   4.228   0.050   3.602
 2514SOL    HW1 7551   4.186  -0.007   3.532
 2514SOL    HW2 7552   4.162   0.119   3.634
 2515SOL     OW 7553   4.297   0.870   2.891
 2515SOL    HW1 7554   4.341   0.959   2.882
 2515SOL    HW2 7555   4.234   0.870   2.968
 2516SOL     OW 7556   4.031   0.213   3.093
 2516SOL    HW1 7557   4.008   0.250   3.183
 2516SOL    HW2 7558   4.001   0.118   3.087
 2517SOL     OW 7559   3.761   1.310   3.144
 2517SOL    HW1 7560   3.814   1.261   3.212
 2517SOL    HW2 7561   3.783   1.408   3.149
 2518SOL     OW 7562   4.031   0.063   2.480
 2518SOL    HW1 7563   4.020   0.157   2.513
 2518SOL    HW2 7564   4.026   0.000   2.557
 2519SOL     OW 7565   4.074   0.898   3.666
 2519SOL    HW1 7566   4.150   0.942   3.714
 2519SOL    HW2 7567   4.109   0.851   3.584
 2520SOL     OW 7568   4.043   0.810   2.811
 2520SOL    HW1 7569   4.136   0.846   2.816
 2520SOL    HW2 7570   4.037   0.725   2.863
 2521SOL     OW 7571   4.063   0.509   2.868
 2521SOL    HW1 7572   4.011   0.426   2.851
 2521SOL    HW2 7573   4.140   0.514   2.804
 2522SOL     OW 7574   3.732   1.326   2.062
 2522SOL    HW1 7575   3.639   1.347   2.031
 2522SOL    HW2 7576   3.742   1.227   2.075
 2523SOL     OW 7577   3.812   1.801   2.789
 2523SOL    HW1 7578   3.770   1.715   2.762
 2523SOL    HW2 7579   3.906   1.804   2.755
 2524SOL     OW 7580   4.228   1.568   2.772
 2524SOL    HW1 7581   4.294   1.642   2.781
 2524SOL    HW2 7582   4.272   1.489   2.730
 2525SOL     OW 7583   3.764   0.544   2.976
 2525SOL    HW1 7584   3.849   0.511   2.935
 2525SOL    HW2 7585   3.777   0.559   3.074
 2526SOL     OW 7586   3.913   0.520   3.584
 2526SOL    HW1 7587   3.972   0.480   3.514
 2526SOL    HW2 7588   3.855   0.591   3.543
 2527SOL     OW 7589   4.539   0.572   2.187
 2527SOL    HW1 7590   4.546   0.483   2.141
 2527SOL    HW2 7591   4.445   0.606   2.179
 2528SOL     OW 7592   3.976   1.564   3.606
 2528SOL    HW1 7593   3.946   1.621   3.682
 2528SOL    HW2 7594   3.969   1.467   3.632
 2529SOL     OW 7595   4.197   0.500   2.053
 2529SOL    HW1 7596   4.258   0.580   2.057
 2529SOL    HW2 7597   4.102   0.531   2.060
 2530SOL     OW 7598   3.883   1.137   3.328
 2530SOL    HW1 7599   3.905   1.076   3.404
 2530SOL    HW2 7600   3.893   1.088   3.242
 2531SOL     OW 7601   3.807   1.258   2.884
 2531SOL    HW1 7602   3.802   1.257   2.984
 2531SOL    HW2 7603   3.724   1.217   2.846
 2532SOL     OW 7604   4.412   1.662   3.578
 2532SOL    HW1 7605   4.356   1.743   3.587
 2532SOL    HW2 7606   4.464   1.666   3.492
 2533SOL     OW 7607   3.854   1.794   3.713
 2533SOL    HW1 7608   3.813   1.720   3.766
 2533SOL    HW2 7609   3.918   1.845   3.771
 2534SOL     OW 7610   3.987   0.326   2.582
 2534SOL    HW1 7611   3.908   0.377   2.548
 2534SOL    HW2 7612   3.978   0.311   2.680
 2535SOL     OW 7613   4.096   1.288   3.352
 2535SOL    HW1 7614   4.083   1.381   3.318
 2535SOL    HW2 7615   4.012   1.236   3.339
 2536SOL     OW 7616   4.314   1.487   2.353
 2536SOL    HW1 7617   4.356   1.429   2.283
 2536SOL    HW2 7618   4.270   1.566   2.309
 2537SOL     OW 7619   3.979   1.348   2.152
 2537SOL    HW1 7620   3.883   1.349   2.125
 2537SOL    HW2 7621   3.991   1.401   2.236
 2538SOL     OW 7622   3.829   1.013   3.588
 2538SOL    HW1 7623   3.752   0.980   3.642
 2538SOL    HW2 7624   3.914   0.983   3.630
 2539SOL     OW 7625   4.396   0.203   3.351
 2539SOL    HW1 7626   4.486   0.187   3.311
 2539SOL    HW2 7627   4.404   0.208   3.450
 2540SOL     OW 7628   3.799   0.345   1.895
 2540SOL    HW1 7629   3.707   0.317   1.866
 2540SOL    HW2 7630   3.830   0.422   1.839
 2541SOL     OW 7631   3.796   0.166   2.180
 2541SOL    HW1 7632   3.779   0.249   2.126
 2541SOL    HW2 7633   3.886   0.129   2.158
 2542SOL     OW 7634   4.337   0.842   3.293
 2542SOL    HW1 7635   4.393   0.923   3.276
 2542SOL    HW2 7636   4.396   0.762   3.296
 2543SOL     OW 7637   4.114   1.741   3.422
 2543SOL    HW1 7638   4.023   1.782   3.420
 2543SOL    HW2 7639   4.107   1.647   3.454
 2544SOL     OW 7640   4.318   0.745   2.514
 2544SOL    HW1 7641   4.368   0.830   2.495
 2544SOL    HW2 7642   4.230   0.747   2.466
 2545SOL     OW 7643   3.945   1.314   3.706
 2545SOL    HW1 7644   3.880   1.241   3.685
 2545SOL    HW2 7645   3.949   1.328   3.804
 2546SOL     OW 7646   3.803   1.240   2.515
 2546SOL    HW1 7647   3.802   1.193   2.603
 2546SOL    HW2 7648   3.885   1.212   2.464
 2547SOL     OW 7649   4.396   1.391   3.486
 2547SOL    HW1 7650   4.318   1.341   3.524
 2547SOL    HW2 7651   4.393   1.486   3.517
 2548SOL     OW 7652   4.152   0.424   2.382
 2548SOL    HW1 7653   4.182   0.352   2.320
 2548SOL    HW2 7654   4.113   0.384   2.465
 2549SOL     OW 7655   4.041   0.547   3.142
 2549SOL    HW1 7656   4.079   0.488   3.214
 2549SOL    HW2 7657   4.081   0.521   3.054
 2550SOL     OW 7658   3.763   1.077   2.162
 2550SOL    HW1 7659   3.862   1.066   2.153
 2550SOL    HW2 7660   3.723   0.991   2.194
 2551SOL     OW 7661   3.954   0.628   3.837
 2551SOL    HW1 7662   3.861   0.626   3.874
 2551SOL    HW2 7663   3.955   0.589   3.745
 2552SOL     OW 7664   3.955   1.713   4.207
 2552SOL    HW1 7665   3.989   1.790   4.261
 2552SOL    HW2 7666   3.999   1.713   4.117
 2553SOL     OW 7667   3.954   1.434   4.262
 2553SOL    HW1 7668   3.928   1.530   4.262
 2553SOL    HW2 7669   3.883   1.380   4.307
 2554SOL     OW 7670   4.330   0.964   3.847
 2554SOL    HW1 7671   4.337   1.048   3.793
 2554SOL    HW2 7672   4.376   0.977   3.935
 2555SOL     OW 7673   3.846   0.643   4.287
 2555SOL    HW1 7674   3.801   0.555   4.304
 2555SOL    HW2 7675   3.845   0.697   4.371
 2556SOL     OW 7676   3.751   1.596   3.841
 2556SOL    HW1 7677   3.732   1.500   3.862
 2556SOL    HW2 7678   3.718   1.654   3.916
 2557SOL     OW 7679   4.337   1.365   4.450
 2557SOL    HW1 7680   4.288   1.278   4.459
 2557SOL    HW2 7681   4.314   1.408   4.363
 2558SOL     OW 7682   4.322   0.729   3.994
 2558SOL    HW1 7683   4.346   0.798   3.926
 2558SOL    HW2 7684   4.244   0.762   4.048
 2559SOL     OW 7685   3.800   0.811   4.513
 2559SOL    HW1 7686   3.899   0.799   4.522
 2559SOL    HW2 7687   3.776   0.906   4.534
 2560SOL     OW 7688   4.075   1.801   4.577
 2560SOL    HW1 7689   4.125   1.715   4.583
 2560SOL    HW2 7690   4.140   1.878   4.574
 2561SOL     OW 7691   4.045   0.943   3.966
 2561SOL    HW1 7692   4.127   0.982   3.924
 2561SOL    HW2 7693   4.018   0.861   3.917
 2562SOL     OW 7694   4.188   1.743   4.047
 2562SOL    HW1 7695   4.221   1.782   4.133
 2562SOL    HW2 7696   4.264   1.736   3.982
 2563SOL     OW 7697   4.106   0.700   4.204
 2563SOL    HW1 7698   4.151   0.610   4.201
 2563SOL    HW2 7699   4.012   0.689   4.237
 2564SOL     OW 7700   4.338   0.122   3.841
 2564SOL    HW1 7701   4.436   0.100   3.848
 2564SOL    HW2 7702   4.307   0.105   3.748
 2565SOL     OW 7703   4.263   0.064   4.236
 2565SOL    HW1 7704   4.182   0.065   4.294
 2565SOL    HW2 7705   4.266   0.147   4.181
 2566SOL     OW 7706   4.021   0.035   3.895
 2566SOL    HW1 7707   4.070   0.119   3.874
 2566SOL    HW2 7708   4.083  -0.030   3.940
 2567SOL     OW 7709   4.659   0.236   4.204
 2567SOL    HW1 7710   4.611   0.277   4.126
 2567SOL    HW2 7711   4.758   0.234   4.185
 2568SOL     OW 7712   4.183   1.152   4.465
 2568SOL    HW1 7713   4.112   1.125   4.530
 2568SOL    HW2 7714   4.157   1.124   4.372
 2569SOL     OW 7715   4.251   0.256   4.052
 2569SOL    HW1 7716   4.278   0.197   3.977
 2569SOL    HW2 7717   4.251   0.351   4.021
 2570SOL     OW 7718   4.091   1.100   4.225
 2570SOL    HW1 7719   4.084   1.183   4.169
 2570SOL    HW2 7720   4.095   1.020   4.165
 2571SOL     OW 7721   4.031   0.063   4.342
 2571SOL    HW1 7722   4.020   0.157   4.375
 2571SOL    HW2 7723   4.026   0.000   4.419
 2572SOL     OW 7724   3.732   1.326   3.924
 2572SOL    HW1 7725   3.639   1.347   3.893
 2572SOL    HW2 7726   3.742   1.227   3.937
 2573SOL     OW 7727   4.539   0.572   4.049
 2573SOL    HW1 7728   4.546   0.483   4.003
 2573SOL    HW2 7729   4.445   0.606   4.041
 2574SOL     OW 7730   4.197   0.500   3.915
 2574SOL    HW1 7731   4.258   0.580   3.919
 2574SOL    HW2 7732   4.102   0.531   3.922
 2575SOL     OW 7733   4.314   1.487   4.215
 2575SOL    HW1 7734   4.356   1.429   4.145
 2575SOL    HW2 7735   4.270   1.566   4.171
 2576SOL     OW 7736   3.979   1.348   4.014
 2576SOL    HW1 7737   3.883   1.349   3.987
 2576SOL    HW2 7738   3.991   1.401   4.098
 2577SOL     OW 7739   3.799   0.345   3.757
 2577SOL    HW1 7740   3.707   0.317   3.728
 2577SOL    HW2 7741   3.830   0.422   3.701
 2578SOL     OW 7742   3.796   0.166   4.042
 2578SOL    HW1 7743   3.779   0.249   3.988
 2578SOL    HW2 7744   3.886   0.129   4.020
 2579SOL     OW 7745   4.318   0.745   4.376
 2579SOL    HW1 7746   4.368   0.830   4.357
 2579SOL    HW2 7747   4.230   0.747   4.328
 2580SOL     OW 7748   3.803   1.240   4.377
 2580SOL    HW1 7749   3.802   1.193   4.465
 2580SOL    HW2 7750   3.885   1.212   4.326
 2581SOL     OW 7751   4.152   0.424   4.244
 2581SOL    HW1 7752   4.182   0.352   4.182
 2581SOL    HW2 7753   4.113   0.384   4.327
 2582SOL     OW 7754   3.763   1.077   4.024
 2582SOL    HW1 7755   3.862   1.066   4.015
 2582SOL    HW2 7756   3.723   0.991   4.056
 2583SOL     OW 7757   3.954   2.490   0.113
 2583SOL    HW1 7758   3.861   2.488   0.150
 2583SOL    HW2 7759   3.955   2.451   0.021
 2584SOL     OW 7760   3.949   2.137   0.996
 2584SOL    HW1 7761   3.984   2.120   1.088
 2584SOL    HW2 7762   3.861   2.092   0.984
 2585SOL     OW 7763   3.743   2.230   0.647
 2585SOL    HW1 7764   3.661   2.273   0.686
 2585SOL    HW2 7765   3.715   2.157   0.584
 2586SOL     OW 7766   4.293   3.137   1.165
 2586SOL    HW1 7767   4.200   3.130   1.128
 2586SOL    HW2 7768   4.304   3.226   1.209
 2587SOL     OW 7769   4.574   2.660   1.823
 2587SOL    HW1 7770   4.570   2.736   1.888
 2587SOL    HW2 7771   4.596   2.696   1.732
 2588SOL     OW 7772   4.059   3.297   1.061
 2588SOL    HW1 7773   3.981   3.266   1.008
 2588SOL    HW2 7774   4.117   3.355   1.004
 2589SOL     OW 7775   4.162   2.254   1.499
 2589SOL    HW1 7776   4.244   2.198   1.508
 2589SOL    HW2 7777   4.081   2.196   1.503
 2590SOL     OW 7778   3.955   3.575   0.483
 2590SOL    HW1 7779   3.989   3.652   0.537
 2590SOL    HW2 7780   3.999   3.575   0.393
 2591SOL     OW 7781   3.954   3.296   0.538
 2591SOL    HW1 7782   3.928   3.392   0.538
 2591SOL    HW2 7783   3.883   3.242   0.583
 2592SOL     OW 7784   3.964   2.953   0.886
 2592SOL    HW1 7785   3.978   2.869   0.938
 2592SOL    HW2 7786   3.909   3.017   0.941
 2593SOL     OW 7787   4.330   2.826   0.123
 2593SOL    HW1 7788   4.337   2.910   0.069
 2593SOL    HW2 7789   4.376   2.839   0.211
 2594SOL     OW 7790   3.846   2.505   0.563
 2594SOL    HW1 7791   3.801   2.417   0.580
 2594SOL    HW2 7792   3.845   2.559   0.647
 2595SOL     OW 7793   3.751   3.458   0.117
 2595SOL    HW1 7794   3.732   3.362   0.138
 2595SOL    HW2 7795   3.718   3.516   0.192
 2596SOL     OW 7796   3.837   2.599   1.597
 2596SOL    HW1 7797   3.925   2.586   1.642
 2596SOL    HW2 7798   3.824   2.696   1.575
 2597SOL     OW 7799   4.337   3.227   0.726
 2597SOL    HW1 7800   4.288   3.140   0.735
 2597SOL    HW2 7801   4.314   3.270   0.639
 2598SOL     OW 7802   4.533   1.866   0.502
 2598SOL    HW1 7803   4.573   1.957   0.493
 2598SOL    HW2 7804   4.433   1.874   0.508
 2599SOL     OW 7805   3.921   2.838   1.264
 2599SOL    HW1 7806   4.010   2.793   1.250
 2599SOL    HW2 7807   3.848   2.773   1.245
 2600SOL     OW 7808   4.041   2.113   1.801
 2600SOL    HW1 7809   4.112   2.184   1.807
 2600SOL    HW2 7810   3.953   2.152   1.829
 2601SOL     OW 7811   4.322   2.591   0.270
 2601SOL    HW1 7812   4.346   2.660   0.202
 2601SOL    HW2 7813   4.244   2.624   0.324
 2602SOL     OW 7814   3.800   2.673   0.789
 2602SOL    HW1 7815   3.899   2.661   0.798
 2602SOL    HW2 7816   3.776   2.768   0.810
 2603SOL     OW 7817   3.854   3.683   1.571
 2603SOL    HW1 7818   3.844   3.668   1.670
 2603SOL    HW2 7819   3.768   3.719   1.535
 2604SOL     OW 7820   4.274   2.058   0.885
 2604SOL    HW1 7821   4.269   2.053   0.985
 2604SOL    HW2 7822   4.276   2.154   0.856
 2605SOL     OW 7823   4.075   3.663   0.853
 2605SOL    HW1 7824   4.125   3.577   0.859
 2605SOL    HW2 7825   4.140   3.740   0.850
 2606SOL     OW 7826   4.045   2.805   0.242
 2606SOL    HW1 7827   4.127   2.844   0.200
 2606SOL    HW2 7828   4.018   2.723   0.193
 2607SOL     OW 7829   4.185   3.128   1.727
 2607SOL    HW1 7830   4.135   3.129   1.641
 2607SOL    HW2 7831   4.122   3.110   1.803
 2608SOL     OW 7832   3.926   2.147   1.498
 2608SOL    HW1 7833   3.846   2.207   1.485
 2608SOL    HW2 7834   3.916   2.098   1.584
 2609SOL     OW 7835   4.188   3.605   0.323
 2609SOL    HW1 7836   4.221   3.644   0.409
 2609SOL    HW2 7837   4.264   3.598   0.258
 2610SOL     OW 7838   3.973   3.647   1.241
 2610SOL    HW1 7839   4.030   3.582   1.291
 2610SOL    HW2 7840   3.957   3.614   1.148
 2611SOL     OW 7841   4.106   2.562   0.480
 2611SOL    HW1 7842   4.151   2.472   0.477
 2611SOL    HW2 7843   4.012   2.551   0.513
 2612SOL     OW 7844   4.338   1.984   0.117
 2612SOL    HW1 7845   4.436   1.962   0.124
 2612SOL    HW2 7846   4.307   1.967   0.024
 2613SOL     OW 7847   4.527   3.264   0.924
 2613SOL    HW1 7848   4.617   3.278   0.882
 2613SOL    HW2 7849   4.456   3.266   0.853
 2614SOL     OW 7850   4.263   1.926   0.512
 2614SOL    HW1 7851   4.182   1.927   0.570
 2614SOL    HW2 7852   4.266   2.009   0.457
 2615SOL     OW 7853   4.659   2.098   0.480
 2615SOL    HW1 7854   4.611   2.139   0.402
 2615SOL    HW2 7855   4.758   2.096   0.461
 2616SOL     OW 7856   4.183   3.014   0.741
 2616SOL    HW1 7857   4.112   2.987   0.806
 2616SOL    HW2 7858   4.157   2.986   0.648
 2617SOL     OW 7859   3.802   2.418   1.386
 2617SOL    HW1 7860   3.894   2.417   1.345
 2617SOL    HW2 7861   3.796   2.492   1.453
 2618SOL     OW 7862   4.285   2.084   1.147
 2618SOL    HW1 7863   4.323   2.000   1.184
 2618SOL    HW2 7864   4.197   2.103   1.191
 2619SOL     OW 7865   4.251   2.118   0.328
 2619SOL    HW1 7866   4.278   2.059   0.253
 2619SOL    HW2 7867   4.251   2.213   0.297
 2620SOL     OW 7868   4.134   2.675   1.251
 2620SOL    HW1 7869   4.220   2.687   1.301
 2620SOL    HW2 7870   4.092   2.588   1.278
 2621SOL     OW 7871   3.788   3.426   1.331
 2621SOL    HW1 7872   3.742   3.508   1.297
 2621SOL    HW2 7873   3.886   3.445   1.340
 2622SOL     OW 7874   4.091   2.962   0.501
 2622SOL    HW1 7875   4.084   3.045   0.445
 2622SOL    HW2 7876   4.095   2.882   0.441
 2623SOL     OW 7877   4.290   2.399   0.865
 2623SOL    HW1 7878   4.302   2.465   0.791
 2623SOL    HW2 7879   4.336   2.433   0.948
 2624SOL     OW 7880   4.078   3.372   1.329
 2624SOL    HW1 7881   4.057   3.328   1.242
 2624SOL    HW2 7882   4.175   3.398   1.332
 2625SOL     OW 7883   4.126   2.613   1.598
 2625SOL    HW1 7884   4.194   2.668   1.551
 2625SOL    HW2 7885   4.166   2.525   1.625
 2626SOL     OW 7886   4.228   1.912   1.740
 2626SOL    HW1 7887   4.186   1.855   1.670
 2626SOL    HW2 7888   4.162   1.981   1.772
 2627SOL     OW 7889   4.297   2.732   1.029
 2627SOL    HW1 7890   4.341   2.821   1.020
 2627SOL    HW2 7891   4.234   2.732   1.106
 2628SOL     OW 7892   4.031   2.075   1.231
 2628SOL    HW1 7893   4.008   2.112   1.321
 2628SOL    HW2 7894   4.001   1.980   1.225
 2629SOL     OW 7895   3.761   3.172   1.282
 2629SOL    HW1 7896   3.814   3.123   1.350
 2629SOL    HW2 7897   3.783   3.270   1.287
 2630SOL     OW 7898   4.031   1.925   0.618
 2630SOL    HW1 7899   4.020   2.019   0.651
 2630SOL    HW2 7900   4.026   1.862   0.695
 2631SOL     OW 7901   4.074   2.760   1.804
 2631SOL    HW1 7902   4.150   2.804   1.852
 2631SOL    HW2 7903   4.109   2.713   1.722
 2632SOL     OW 7904   4.043   2.672   0.949
 2632SOL    HW1 7905   4.136   2.708   0.954
 2632SOL    HW2 7906   4.037   2.587   1.001
 2633SOL     OW 7907   4.063   2.371   1.006
 2633SOL    HW1 7908   4.011   2.288   0.989
 2633SOL    HW2 7909   4.140   2.376   0.942
 2634SOL     OW 7910   3.732   3.188   0.200
 2634SOL    HW1 7911   3.639   3.209   0.169
 2634SOL    HW2 7912   3.742   3.089   0.213
 2635SOL     OW 7913   3.812   3.663   0.927
 2635SOL    HW1 7914   3.770   3.577   0.900
 2635SOL    HW2 7915   3.906   3.666   0.893
 2636SOL     OW 7916   4.228   3.430   0.910
 2636SOL    HW1 7917   4.294   3.504   0.919
 2636SOL    HW2 7918   4.272   3.351   0.868
 2637SOL     OW 7919   3.764   2.406   1.114
 2637SOL    HW1 7920   3.849   2.373   1.073
 2637SOL    HW2 7921   3.777   2.421   1.212
 2638SOL     OW 7922   3.913   2.382   1.722
 2638SOL    HW1 7923   3.972   2.342   1.652
 2638SOL    HW2 7924   3.855   2.453   1.681
 2639SOL     OW 7925   4.539   2.434   0.325
 2639SOL    HW1 7926   4.546   2.345   0.279
 2639SOL    HW2 7927   4.445   2.468   0.317
 2640SOL     OW 7928   3.976   3.426   1.744
 2640SOL    HW1 7929   3.946   3.483   1.820
 2640SOL    HW2 7930   3.969   3.329   1.770
 2641SOL     OW 7931   4.197   2.362   0.191
 2641SOL    HW1 7932   4.258   2.442   0.195
 2641SOL    HW2 7933   4.102   2.393   0.198
 2642SOL     OW 7934   3.883   2.999   1.466
 2642SOL    HW1 7935   3.905   2.938   1.542
 2642SOL    HW2 7936   3.893   2.950   1.380
 2643SOL     OW 7937   3.807   3.120   1.022
 2643SOL    HW1 7938   3.802   3.119   1.122
 2643SOL    HW2 7939   3.724   3.079   0.984
 2644SOL     OW 7940   4.412   3.524   1.716
 2644SOL    HW1 7941   4.356   3.605   1.725
 2644SOL    HW2 7942   4.464   3.528   1.630
 2645SOL     OW 7943   3.854   3.656   1.851
 2645SOL    HW1 7944   3.813   3.582   1.904
 2645SOL    HW2 7945   3.918   3.707   1.909
 2646SOL     OW 7946   3.987   2.188   0.720
 2646SOL    HW1 7947   3.908   2.239   0.686
 2646SOL    HW2 7948   3.978   2.173   0.818
 2647SOL     OW 7949   4.096   3.150   1.490
 2647SOL    HW1 7950   4.083   3.243   1.456
 2647SOL    HW2 7951   4.012   3.098   1.477
 2648SOL     OW 7952   4.314   3.349   0.491
 2648SOL    HW1 7953   4.356   3.291   0.421
 2648SOL    HW2 7954   4.270   3.428   0.447
 2649SOL     OW 7955   3.979   3.210   0.290
 2649SOL    HW1 7956   3.883   3.211   0.263
 2649SOL    HW2 7957   3.991   3.263   0.374
 2650SOL     OW 7958   3.829   2.875   1.726
 2650SOL    HW1 7959   3.752   2.842   1.780
 2650SOL    HW2 7960   3.914   2.845   1.768
 2651SOL     OW 7961   4.396   2.065   1.489
 2651SOL    HW1 7962   4.486   2.049   1.449
 2651SOL    HW2 7963   4.404   2.070   1.588
 2652SOL     OW 7964   3.799   2.207   0.033
 2652SOL    HW1 7965   3.707   2.179   0.004
 2652SOL    HW2 7966   3.830   2.284  -0.023
 2653SOL     OW 7967   4.337   2.704   1.431
 2653SOL    HW1 7968   4.393   2.785   1.414
 2653SOL    HW2 7969   4.396   2.624   1.434
 2654SOL     OW 7970   4.114   3.603   1.560
 2654SOL    HW1 7971   4.023   3.644   1.558
 2654SOL    HW2 7972   4.107   3.509   1.592
 2655SOL     OW 7973   4.318   2.607   0.652
 2655SOL    HW1 7974   4.368   2.692   0.633
 2655SOL    HW2 7975   4.230   2.609   0.604
 2656SOL     OW 7976   3.945   3.176   1.844
 2656SOL    HW1 7977   3.880   3.103   1.823
 2656SOL    HW2 7978   3.949   3.190   1.942
 2657SOL     OW 7979   3.803   3.102   0.653
 2657SOL    HW1 7980   3.802   3.055   0.741
 2657SOL    HW2 7981   3.885   3.074   0.602
 2658SOL     OW 7982   4.396   3.253   1.624
 2658SOL    HW1 7983   4.318   3.203   1.662
 2658SOL    HW2 7984   4.393   3.348   1.655
 2659SOL     OW 7985   4.152   2.286   0.520
 2659SOL    HW1 7986   4.182   2.214   0.458
 2659SOL    HW2 7987   4.113   2.246   0.603
 2660SOL     OW 7988   4.041   2.409   1.280
 2660SOL    HW1 7989   4.079   2.350   1.352
 2660SOL    HW2 7990   4.081   2.383   1.192
 2661SOL     OW 7991   3.763   2.939   0.300
 2661SOL    HW1 7992   3.862   2.928   0.291
 2661SOL    HW2 7993   3.723   2.853   0.332
 2662SOL     OW 7994   3.954   2.490   1.975
 2662SOL    HW1 7995   3.861   2.488   2.012
 2662SOL    HW2 7996   3.955   2.451   1.883
 2663SOL     OW 7997   3.949   2.137   2.858
 2663SOL    HW1 7998   3.984   2.120   2.950
 2663SOL    HW2 7999   3.861   2.092   2.846
 2664SOL     OW 8000   3.743   2.230   2.509
 2664SOL    HW1 8001   3.661   2.273   2.548
 2664SOL    HW2 8002   3.715   2.157   2.446
 2665SOL     OW 8003   4.293   3.137   3.027
 2665SOL    HW1 8004   4.200   3.130   2.990
 2665SOL    HW2 8005   4.304   3.226   3.071
 2666SOL     OW 8006   4.574   2.660   3.685
 2666SOL    HW1 8007   4.570   2.736   3.750
 2666SOL    HW2 8008   4.596   2.696   3.594
 2667SOL     OW 8009   4.059   3.297   2.923
 2667SOL    HW1 8010   3.981   3.266   2.870
 2667SOL    HW2 8011   4.117   3.355   2.866
 2668SOL     OW 8012   4.162   2.254   3.361
 2668SOL    HW1 8013   4.244   2.198   3.370
 2668SOL    HW2 8014   4.081   2.196   3.365
 2669SOL     OW 8015   3.955   3.575   2.345
 2669SOL    HW1 8016   3.989   3.652   2.399
 2669SOL    HW2 8017   3.999   3.575   2.255
 2670SOL     OW 8018   3.954   3.296   2.400
 2670SOL    HW1 8019   3.928   3.392   2.400
 2670SOL    HW2 8020   3.883   3.242   2.445
 2671SOL     OW 8021   3.964   2.953   2.748
 2671SOL    HW1 8022   3.978   2.869   2.800
 2671SOL    HW2 8023   3.909   3.017   2.803
 2672SOL     OW 8024   4.330   2.826   1.985
 2672SOL    HW1 8025   4.337   2.910   1.931
 2672SOL    HW2 8026   4.376   2.839   2.073
 2673SOL     OW 8027   3.846   2.505   2.425
 2673SOL    HW1 8028   3.801   2.417   2.442
 2673SOL    HW2 8029   3.845   2.559   2.509
 2674SOL     OW 8030   3.751   3.458   1.979
 2674SOL    HW1 8031   3.732   3.362   2.000
 2674SOL    HW2 8032   3.718   3.516   2.054
 2675SOL     OW 8033   3.837   2.599   3.459
 2675SOL    HW1 8034   3.925   2.586   3.504
 2675SOL    HW2 8035   3.824   2.696   3.437
 2676SOL     OW 8036   4.337   3.227   2.588
 2676SOL    HW1 8037   4.288   3.140   2.597
 2676SOL    HW2 8038   4.314   3.270   2.501
 2677SOL     OW 8039   4.533   1.866   2.364
 2677SOL    HW1 8040   4.573   1.957   2.355
 2677SOL    HW2 8041   4.433   1.874   2.370
 2678SOL     OW 8042   3.921   2.838   3.126
 2678SOL    HW1 8043   4.010   2.793   3.112
 2678SOL    HW2 8044   3.848   2.773   3.107
 2679SOL     OW 8045   4.041   2.113   3.663
 2679SOL    HW1 8046   4.112   2.184   3.669
 2679SOL    HW2 8047   3.953   2.152   3.691
 2680SOL     OW 8048   4.322   2.591   2.132
 2680SOL    HW1 8049   4.346   2.660   2.064
 2680SOL    HW2 8050   4.244   2.624   2.186
 2681SOL     OW 8051   3.800   2.673   2.651
 2681SOL    HW1 8052   3.899   2.661   2.660
 2681SOL    HW2 8053   3.776   2.768   2.672
 2682SOL     OW 8054   3.854   3.683   3.433
 2682SOL    HW1 8055   3.844   3.668   3.532
 2682SOL    HW2 8056   3.768   3.719   3.397
 2683SOL     OW 8057   4.274   2.058   2.747
 2683SOL    HW1 8058   4.269   2.053   2.847
 2683SOL    HW2 8059   4.276   2.154   2.718
 2684SOL     OW 8060   4.075   3.663   2.715
 2684SOL    HW1 8061   4.125   3.577   2.721
 2684SOL    HW2 8062   4.140   3.740   2.712
 2685SOL     OW 8063   4.045   2.805   2.104
 2685SOL    HW1 8064   4.127   2.844   2.062
 2685SOL    HW2 8065   4.018   2.723   2.055
 2686SOL     OW 8066   4.185   3.128   3.589
 2686SOL    HW1 8067   4.135   3.129   3.503
 2686SOL    HW2 8068   4.122   3.110   3.665
 2687SOL     OW 8069   3.926   2.147   3.360
 2687SOL    HW1 8070   3.846   2.207   3.347
 2687SOL    HW2 8071   3.916   2.098   3.446
 2688SOL     OW 8072   4.188   3.605   2.185
 2688SOL    HW1 8073   4.221   3.644   2.271
 2688SOL    HW2 8074   4.264   3.598   2.120
 2689SOL     OW 8075   3.973   3.647   3.103
 2689SOL    HW1 8076   4.030   3.582   3.153
 2689SOL    HW2 8077   3.957   3.614   3.010
 2690SOL     OW 8078   4.106   2.562   2.342
 2690SOL    HW1 8079   4.151   2.472   2.339
 2690SOL    HW2 8080   4.012   2.551   2.375
 2691SOL     OW 8081   4.338   1.984   1.979
 2691SOL    HW1 8082   4.436   1.962   1.986
 2691SOL    HW2 8083   4.307   1.967   1.886
 2692SOL     OW 8084   4.527   3.264   2.786
 2692SOL    HW1 8085   4.617   3.278   2.744
 2692SOL    HW2 8086   4.456   3.266   2.715
 2693SOL     OW 8087   4.263   1.926   2.374
 2693SOL    HW1 8088   4.182   1.927   2.432
 2693SOL    HW2 8089   4.266   2.009   2.319
 2694SOL     OW 8090   4.021   1.897   2.033
 2694SOL    HW1 8091   4.070   1.981   2.012
 2694SOL    HW2 8092   4.083   1.832   2.078
 2695SOL     OW 8093   4.659   2.098   2.342
 2695SOL    HW1 8094   4.611   2.139   2.264
 2695SOL    HW2 8095   4.758   2.096   2.323
 2696SOL     OW 8096   4.183   3.014   2.603
 2696SOL    HW1 8097   4.112   2.987   2.668
 2696SOL    HW2 8098   4.157   2.986   2.510
 2697SOL     OW 8099   3.802   2.418   3.248
 2697SOL    HW1 8100   3.894   2.417   3.207
 2697SOL    HW2 8101   3.796   2.492   3.315
 2698SOL     OW 8102   4.285   2.084   3.009
 2698SOL    HW1 8103   4.323   2.000   3.046
 2698SOL    HW2 8104   4.197   2.103   3.053
 2699SOL     OW 8105   4.251   2.118   2.190
 2699SOL    HW1 8106   4.278   2.059   2.115
 2699SOL    HW2 8107   4.251   2.213   2.159
 2700SOL     OW 8108   4.134   2.675   3.113
 2700SOL    HW1 8109   4.220   2.687   3.163
 2700SOL    HW2 8110   4.092   2.588   3.140
 2701SOL     OW 8111   3.788   3.426   3.193
 2701SOL    HW1 8112   3.742   3.508   3.159
 2701SOL    HW2 8113   3.886   3.445   3.202
 2702SOL     OW 8114   4.091   2.962   2.363
 2702SOL    HW1 8115   4.084   3.045   2.307
 2702SOL    HW2 8116   4.095   2.882   2.303
 2703SOL     OW 8117   4.290   2.399   2.727
 2703SOL    HW1 8118   4.302   2.465   2.653
 2703SOL    HW2 8119   4.336   2.433   2.810
 2704SOL     OW 8120   4.078   3.372   3.191
 2704SOL    HW1 8121   4.057   3.328   3.104
 2704SOL    HW2 8122   4.175   3.398   3.194
 2705SOL     OW 8123   4.126   2.613   3.460
 2705SOL    HW1 8124   4.194   2.668   3.413
 2705SOL    HW2 8125   4.166   2.525   3.487
 2706SOL     OW 8126   4.228   1.912   3.602
 2706SOL    HW1 8127   4.186   1.855   3.532
 2706SOL    HW2 8128   4.162   1.981   3.634
 2707SOL     OW 8129   4.297   2.732   2.891
 2707SOL    HW1 8130   4.341   2.821   2.882
 2707SOL    HW2 8131   4.234   2.732   2.968
 2708SOL     OW 8132   4.031   2.075   3.093
 2708SOL    HW1 8133   4.008   2.112   3.183
 2708SOL    HW2 8134   4.001   1.980   3.087
 2709SOL     OW 8135   3.761   3.172   3.144
 2709SOL    HW1 8136   3.814   3.123   3.212
 2709SOL    HW2 8137   3.783   3.270   3.149
 2710SOL     OW 8138   4.031   1.925   2.480
 2710SOL    HW1 8139   4.020   2.019   2.513
 2710SOL    HW2 8140   4.026   1.862   2.557
 2711SOL     OW 8141   4.074   2.760   3.666
 2711SOL    HW1 8142   4.150   2.804   3.714
 2711SOL    HW2 8143   4.109   2.713   3.584
 2712SOL     OW 8144   4.043   2.672   2.811
 2712SOL    HW1 8145   4.136   2.708   2.816
 2712SOL    HW2 8146   4.037   2.587   2.863
 2713SOL     OW 8147   4.063   2.371   2.868
 2713SOL    HW1 8148   4.011   2.288   2.851
 2713SOL    HW2 8149   4.140   2.376   2.804
 2714SOL     OW 8150   3.732   3.188   2.062
 2714SOL    HW1 8151   3.639   3.209   2.031
 2714SOL    HW2 8152   3.742   3.089   2.075
 2715SOL     OW 8153   3.812   3.663   2.789
 2715SOL    HW1 8154   3.770   3.577   2.762
 2715SOL    HW2 8155   3.906   3.666   2.755
 2716SOL     OW 8156   4.228   3.430   2.772
 2716SOL    HW1 8157   4.294   3.504   2.781
 2716SOL    HW2 8158   4.272   3.351   2.730
 2717SOL     OW 8159   3.764   2.406   2.976
 2717SOL    HW1 8160   3.849   2.373   2.935
 2717SOL    HW2 8161   3.777   2.421   3.074
 2718SOL     OW 8162   3.913   2.382   3.584
 2718SOL    HW1 8163   3.972   2.342   3.514
 2718SOL    HW2 8164   3.855   2.453   3.543
 2719SOL     OW 8165   4.539   2.434   2.187
 2719SOL    HW1 8166   4.546   2.345   2.141
 2719SOL    HW2 8167   4.445   2.468   2.179
 2720SOL     OW 8168   3.976   3.426   3.606
 2720SOL    HW1 8169   3.946   3.483   3.682
 2720SOL    HW2 8170   3.969   3.329   3.632
 2721SOL     OW 8171   4.197   2.362   2.053
 2721SOL    HW1 8172   4.258   2.442   2.057
 2721SOL    HW2 8173   4.102   2.393   2.060
 2722SOL     OW 8174   3.883   2.999   3.328
 2722SOL    HW1 8175   3.905   2.938   3.404
 2722SOL    HW2 8176   3.893   2.950   3.242
 2723SOL     OW 8177   3.807   3.120   2.884
 2723SOL    HW1 8178   3.802   3.119   2.984
 2723SOL    HW2 8179   3.724   3.079   2.846
 2724SOL     OW 8180   4.412   3.524   3.578
 2724SOL    HW1 8181   4.356   3.605   3.587
 2724SOL    HW2 8182   4.464   3.528   3.492
 2725SOL     OW 8183   3.854   3.656   3.713
 2725SOL    HW1 8184   3.813   3.582   3.766
 2725SOL    HW2 8185   3.918   3.707   3.771
 2726SOL     OW 8186   3.987   2.188   2.582
 2726SOL    HW1 8187   3.908   2.239   2.548
 2726SOL    HW2 8188   3.978   2.173   2.680
 2727SOL     OW 8189   4.096   3.150   3.352
 2727SOL    HW1 8190   4.083   3.243   3.318
 2727SOL    HW2 8191   4.012   3.098   3.339
 2728SOL     OW 8192   4.314   3.349   2.353
 2728SOL    HW1 8193   4.356   3.291   2.283
 2728SOL    HW2 8194   4.270   3.428   2.309
 2729SOL     OW 8195   3.979   3.210   2.152
 2729SOL    HW1 8196   3.883   3.211   2.125
 2729SOL    HW2 8197   3.991   3.263   2.236
 2730SOL     OW 8198   3.829   2.875   3.588
 2730SOL    HW1 8199   3.752   2.842   3.642
 2730SOL    HW2 8200   3.914   2.845   3.630
 2731SOL     OW 8201   4.396   2.065   3.351
 2731SOL    HW1 8202   4.486   2.049   3.311
 2731SOL    HW2 8203   4.404   2.070   3.450
 2732SOL     OW 8204   3.799   2.207   1.895
 2732SOL    HW1 8205   3.707   2.179   1.866
 2732SOL    HW2 8206   3.830   2.284   1.839
 2733SOL     OW 8207   3.796   2.028   2.180
 2733SOL    HW1 8208   3.779   2.111   2.126
 2733SOL    HW2 8209   3.886   1.991   2.158
 2734SOL     OW 8210   4.337   2.704   3.293
 2734SOL    HW1 8211   4.393   2.785   3.276
 2734SOL    HW2 8212   4.396   2.624   3.296
 2735SOL     OW 8213   4.114   3.603   3.422
 2735SOL    HW1 8214   4.023   3.644   3.420
 2735SOL    HW2 8215   4.107   3.509   3.454
 2736SOL     OW 8216   4.318   2.607   2.514
 2736SOL    HW1 8217   4.368   2.692   2.495
 2736SOL    HW2 8218   4.230   2.609   2.466
 2737SOL     OW 8219   3.945   3.176   3.706
 2737SOL    HW1 8220   3.880   3.103   3.685
 2737SOL    HW2 8221   3.949   3.190   3.804
 2738SOL     OW 8222   3.803   3.102   2.515
 2738SOL    HW1 8223   3.802   3.055   2.603
 2738SOL    HW2 8224   3.885   3.074   2.464
 2739SOL     OW 8225   4.396   3.253   3.486
 2739SOL    HW1 8226   4.318   3.203   3.524
 2739SOL    HW2 8227   4.393   3.348   3.517
 2740SOL     OW 8228   4.152   2.286   2.382
 2740SOL    HW1 8229   4.182   2.214   2.320
 2740SOL    HW2 8230   4.113   2.246   2.465
 2741SOL     OW 8231   4.041   2.409   3.142
 2741SOL    HW1 8232   4.079   2.350   3.214
 2741SOL    HW2 8233   4.081   2.383   3.054
 2742SOL     OW 8234   3.763   2.939   2.162
 2742SOL    HW1 8235   3.862   2.928   2.153
 2742SOL    HW2 8236   3.723   2.853   2.194
 2743SOL     OW 8237   3.954   2.490   3.837
 2743SOL    HW1 8238   3.861   2.488   3.874
 2743SOL    HW2 8239   3.955   2.451   3.745
 2744SOL     OW 8240   3.955   3.575   4.207
 2744SOL    HW1 8241   3.989   3.652   4.261
 2744SOL    HW2 8242   3.999   3.575   4.117
 2745SOL     OW 8243   3.954   3.296   4.262
 2745SOL    HW1 8244   3.928   3.392   4.262
 2745SOL    HW2 8245   3.883   3.242   4.307
 2746SOL     OW 8246   4.330   2.826   3.847
 2746SOL    HW1 8247   4.337   2.910   3.793
 2746SOL    HW2 8248   4.376   2.839   3.935
 2747SOL     OW 8249   3.846   2.505   4.287
 2747SOL    HW1 8250   3.801   2.417   4.304
 2747SOL    HW2 8251   3.845   2.559   4.371
 2748SOL     OW 8252   3.751   3.458   3.841
 2748SOL    HW1 8253   3.732   3.362   3.862
 2748SOL    HW2 8254   3.718   3.516   3.916
 2749SOL     OW 8255   4.337   3.227   4.450
 2749SOL    HW1 8256   4.288   3.140   4.459
 2749SOL    HW2 8257   4.314   3.270   4.363
 2750SOL     OW 8258   4.533   1.866   4.226
 2750SOL    HW1 8259   4.573   1.957   4.217
 2750SOL    HW2 8260   4.433   1.874   4.232
 2751SOL     OW 8261   4.322   2.591   3.994
 2751SOL    HW1 8262   4.346   2.660   3.926
 2751SOL    HW2 8263   4.244   2.624   4.048
 2752SOL     OW 8264   3.800   2.673   4.513
 2752SOL    HW1 8265   3.899   2.661   4.522
 2752SOL    HW2 8266   3.776   2.768   4.534
 2753SOL     OW 8267   4.075   3.663   4.577
 2753SOL    HW1 8268   4.125   3.577   4.583
 2753SOL    HW2 8269   4.140   3.740   4.574
 2754SOL     OW 8270   4.045   2.805   3.966
 2754SOL    HW1 8271   4.127   2.844   3.924
 2754SOL    HW2 8272   4.018   2.723   3.917
 2755SOL     OW 8273   4.188   3.605   4.047
 2755SOL    HW1 8274   4.221   3.644   4.133
 2755SOL    HW2 8275   4.264   3.598   3.982
 2756SOL     OW 8276   4.106   2.562   4.204
 2756SOL    HW1 8277   4.151   2.472   4.201
 2756SOL    HW2 8278   4.012   2.551   4.237
 2757SOL     OW 8279   4.338   1.984   3.841
 2757SOL    HW1 8280   4.436   1.962   3.848
 2757SOL    HW2 8281   4.307   1.967   3.748
 2758SOL     OW 8282   4.263   1.926   4.236
 2758SOL    HW1 8283   4.182   1.927   4.294
 2758SOL    HW2 8284   4.266   2.009   4.181
 2759SOL     OW 8285   4.021   1.897   3.895
 2759SOL    HW1 8286   4.070   1.981   3.874
 2759SOL    HW2 8287   4.083   1.832   3.940
 2760SOL     OW 8288   4.659   2.098   4.204
 2760SOL    HW1 8289   4.611   2.139   4.126
 2760SOL    HW2 8290   4.758   2.096   4.185
 2761SOL     OW 8291   4.183   3.014   4.465
 2761SOL    HW1 8292   4.112   2.987   4.530
 2761SOL    HW2 8293   4.157   2.986   4.372
 2762SOL     OW 8294   4.251   2.118   4.052
 2762SOL    HW1 8295   4.278   2.059   3.977
 2762SOL    HW2 8296   4.251   2.213   4.021
 2763SOL     OW 8297   4.091   2.962   4.225
 2763SOL    HW1 8298   4.084   3.045   4.169
 2763SOL    HW2 8299   4.095   2.882   4.165
 2764SOL     OW 8300   4.031   1.925   4.342
 2764SOL    HW1 8301   4.020   2.019   4.375
 2764SOL    HW2 8302   4.026   1.862   4.419
 2765SOL     OW 8303   3.732   3.188   3.924
 2765SOL    HW1 8304   3.639   3.209   3.893
 2765SOL    HW2 8305   3.742   3.089   3.937
 2766SOL     OW 8306   4.539   2.434   4.049
 2766SOL    HW1 8307   4.546   2.345   4.003
 2766SOL    HW2 8308   4.445   2.468   4.041
 2767SOL     OW 8309   4.197   2.362   3.915
 2767SOL    HW1 8310   4.258   2.442   3.919
 2767SOL    HW2 8311   4.102   2.393   3.922
 2768SOL     OW 8312   4.314   3.349   4.215
 2768SOL    HW1 8313   4.356   3.291   4.145
 2768SOL    HW2 8314   4.270   3.428   4.171
 2769SOL     OW 8315   3.979   3.210   4.014
 2769SOL    HW1 8316   3.883   3.211   3.987
 2769SOL    HW2 8317   3.991   3.263   4.098
 2770SOL     OW 8318   3.799   2.207   3.757
 2770SOL    HW1 8319   3.707   2.179   3.728
 2770SOL    HW2 8320   3.830   2.284   3.701
 2771SOL     OW 8321   3.796   2.028   4.042
 2771SOL    HW1 8322   3.779   2.111   3.988
 2771SOL    HW2 8323   3.886   1.991   4.020
 2772SOL     OW 8324   4.318   2.607   4.376
 2772SOL    HW1 8325   4.368   2.692   4.357
 2772SOL    HW2 8326   4.230   2.609   4.328
 2773SOL     OW 8327   3.803   3.102   4.377
 2773SOL    HW1 8328   3.802   3.055   4.465
 2773SOL    HW2 8329   3.885   3.074   4.326
 2774SOL     OW 8330   4.152   2.286   4.244
 2774SOL    HW1 8331   4.182   2.214   4.182
 2774SOL    HW2 8332   4.113   2.246   4.327
 2775SOL     OW 8333   3.763   2.939   4.024
 2775SOL    HW1 8334   3.862   2.928   4.015
 2775SOL    HW2 8335   3.723   2.853   4.056
 2776SOL     OW 8336   3.949   3.999   0.996
 2776SOL    HW1 8337   3.984   3.982   1.088
 2776SOL    HW2 8338   3.861   3.954   0.984
 2777SOL     OW 8339   3.743   4.092   0.647
 2777SOL    HW1 8340   3.661   4.135   0.686
 2777SOL    HW2 8341   3.715   4.019   0.584
 2778SOL     OW 8342   4.574   4.522   1.823
 2778SOL    HW1 8343   4.570   4.598   1.888
 2778SOL    HW2 8344   4.596   4.558   1.732
 2779SOL     OW 8345   4.162   4.116   1.499
 2779SOL    HW1 8346   4.244   4.060   1.508
 2779SOL    HW2 8347   4.081   4.058   1.503
 2780SOL     OW 8348   3.846   4.367   0.563
 2780SOL    HW1 8349   3.801   4.279   0.580
 2780SOL    HW2 8350   3.845   4.421   0.647
 2781SOL     OW 8351   3.837   4.461   1.597
 2781SOL    HW1 8352   3.925   4.448   1.642
 2781SOL    HW2 8353   3.824   4.558   1.575
 2782SOL     OW 8354   4.533   3.728   0.502
 2782SOL    HW1 8355   4.573   3.819   0.493
 2782SOL    HW2 8356   4.433   3.736   0.508
 2783SOL     OW 8357   4.041   3.975   1.801
 2783SOL    HW1 8358   4.112   4.046   1.807
 2783SOL    HW2 8359   3.953   4.014   1.829
 2784SOL     OW 8360   4.322   4.453   0.270
 2784SOL    HW1 8361   4.346   4.522   0.202
 2784SOL    HW2 8362   4.244   4.486   0.324
 2785SOL     OW 8363   4.274   3.920   0.885
 2785SOL    HW1 8364   4.269   3.915   0.985
 2785SOL    HW2 8365   4.276   4.016   0.856
 2786SOL     OW 8366   3.926   4.009   1.498
 2786SOL    HW1 8367   3.846   4.069   1.485
 2786SOL    HW2 8368   3.916   3.960   1.584
 2787SOL     OW 8369   4.338   3.846   0.117
 2787SOL    HW1 8370   4.436   3.824   0.124
 2787SOL    HW2 8371   4.307   3.829   0.024
 2788SOL     OW 8372   4.263   3.788   0.512
 2788SOL    HW1 8373   4.182   3.789   0.570
 2788SOL    HW2 8374   4.266   3.871   0.457
 2789SOL     OW 8375   4.659   3.960   0.480
 2789SOL    HW1 8376   4.611   4.001   0.402
 2789SOL    HW2 8377   4.758   3.958   0.461
 2790SOL     OW 8378   3.802   4.280   1.386
 2790SOL    HW1 8379   3.894   4.279   1.345
 2790SOL    HW2 8380   3.796   4.354   1.453
 2791SOL     OW 8381   4.285   3.946   1.147
 2791SOL    HW1 8382   4.323   3.862   1.184
 2791SOL    HW2 8383   4.197   3.965   1.191
 2792SOL     OW 8384   4.251   3.980   0.328
 2792SOL    HW1 8385   4.278   3.921   0.253
 2792SOL    HW2 8386   4.251   4.075   0.297
 2793SOL     OW 8387   4.290   4.261   0.865
 2793SOL    HW1 8388   4.302   4.327   0.791
 2793SOL    HW2 8389   4.336   4.295   0.948
 2794SOL     OW 8390   4.228   3.774   1.740
 2794SOL    HW1 8391   4.186   3.717   1.670
 2794SOL    HW2 8392   4.162   3.843   1.772
 2795SOL     OW 8393   4.031   3.937   1.231
 2795SOL    HW1 8394   4.008   3.974   1.321
 2795SOL    HW2 8395   4.001   3.842   1.225
 2796SOL     OW 8396   4.031   3.787   0.618
 2796SOL    HW1 8397   4.020   3.881   0.651
 2796SOL    HW2 8398   4.026   3.724   0.695
 2797SOL     OW 8399   4.043   4.534   0.949
 2797SOL    HW1 8400   4.136   4.570   0.954
 2797SOL    HW2 8401   4.037   4.449   1.001
 2798SOL     OW 8402   4.063   4.233   1.006
 2798SOL    HW1 8403   4.011   4.150   0.989
 2798SOL    HW2 8404   4.140   4.238   0.942
 2799SOL     OW 8405   3.764   4.268   1.114
 2799SOL    HW1 8406   3.849   4.235   1.073
 2799SOL    HW2 8407   3.777   4.283   1.212
 2800SOL     OW 8408   3.913   4.244   1.722
 2800SOL    HW1 8409   3.972   4.204   1.652
 2800SOL    HW2 8410   3.855   4.315   1.681
 2801SOL     OW 8411   4.539   4.296   0.325
 2801SOL    HW1 8412   4.546   4.207   0.279
 2801SOL    HW2 8413   4.445   4.330   0.317
 2802SOL     OW 8414   4.197   4.224   0.191
 2802SOL    HW1 8415   4.258   4.304   0.195
 2802SOL    HW2 8416   4.102   4.255   0.198
 2803SOL     OW 8417   3.987   4.050   0.720
 2803SOL    HW1 8418   3.908   4.101   0.686
 2803SOL    HW2 8419   3.978   4.035   0.818
 2804SOL     OW 8420   4.396   3.927   1.489
 2804SOL    HW1 8421   4.486   3.911   1.449
 2804SOL    HW2 8422   4.404   3.932   1.588
 2805SOL     OW 8423   3.799   4.069   0.033
 2805SOL    HW1 8424   3.707   4.041   0.004
 2805SOL    HW2 8425   3.830   4.146  -0.023
 2806SOL     OW 8426   4.152   4.148   0.520
 2806SOL    HW1 8427   4.182   4.076   0.458
 2806SOL    HW2 8428   4.113   4.108   0.603
 2807SOL     OW 8429   4.041   4.271   1.280
 2807SOL    HW1 8430   4.079   4.212   1.352
 2807SOL    HW2 8431   4.081   4.245   1.192
 2808SOL     OW 8432   3.949   3.999   2.858
 2808SOL    HW1 8433   3.984   3.982   2.950
 2808SOL    HW2 8434   3.861   3.954   2.846
 2809SOL     OW 8435   3.743   4.092   2.509
 2809SOL    HW1 8436   3.661   4.135   2.548
 2809SOL    HW2 8437   3.715   4.019   2.446
 2810SOL     OW 8438   4.574   4.522   3.685
 2810SOL    HW1 8439   4.570   4.598   3.750
 2810SOL    HW2 8440   4.596   4.558   3.594
 2811SOL     OW 8441   4.162   4.116   3.361
 2811SOL    HW1 8442   4.244   4.060   3.370
 2811SOL    HW2 8443   4.081   4.058   3.365
 2812SOL     OW 8444   3.846   4.367   2.425
 2812SOL    HW1 8445   3.801   4.279   2.442
 2812SOL    HW2 8446   3.845   4.421   2.509
 2813SOL     OW 8447   3.837   4.461   3.459
 2813SOL    HW1 8448   3.925   4.448   3.504
 2813SOL    HW2 8449   3.824   4.558   3.437
 2814SOL     OW 8450   4.533   3.728   2.364
 2814SOL    HW1 8451   4.573   3.819   2.355
 2814SOL    HW2 8452   4.433   3.736   2.370
 2815SOL     OW 8453   4.041   3.975   3.663
 2815SOL    HW1 8454   4.112   4.046   3.669
 2815SOL    HW2 8455   3.953   4.014   3.691
 2816SOL     OW 8456   4.274   3.920   2.747
 2816SOL    HW1 8457   4.269   3.915   2.847
 2816SOL    HW2 8458   4.276   4.016   2.718
 2817SOL     OW 8459   3.926   4.009   3.360
 2817SOL    HW1 8460   3.846   4.069   3.347
 2817SOL    HW2 8461   3.916   3.960   3.446
 2818SOL     OW 8462   4.338   3.846   1.979
 2818SOL    HW1 8463   4.436   3.824   1.986
 2818SOL    HW2 8464   4.307   3.829   1.886
 2819SOL     OW 8465   4.263   3.788   2.374
 2819SOL    HW1 8466   4.182   3.789   2.432
 2819SOL    HW2 8467   4.266   3.871   2.319
 2820SOL     OW 8468   4.021   3.759   2.033
 2820SOL    HW1 8469   4.070   3.843   2.012
 2820SOL    HW2 8470   4.083   3.694   2.078
 2821SOL     OW 8471   4.659   3.960   2.342
 2821SOL    HW1 8472   4.611   4.001   2.264
 2821SOL    HW2 8473   4.758   3.958   2.323
 2822SOL     OW 8474   3.802   4.280   3.248
 2822SOL    HW1 8475   3.894   4.279   3.207
 2822SOL    HW2 8476   3.796   4.354   3.315
 2823SOL     OW 8477   4.285   3.946   3.009
 2823SOL    HW1 8478   4.323   3.862   3.046
 2823SOL    HW2 8479   4.197   3.965   3.053
 2824SOL     OW 8480   4.251   3.980   2.190
 2824SOL    HW1 8481   4.278   3.921   2.115
 2824SOL    HW2 8482   4.251   4.075   2.159
 2825SOL     OW 8483   4.290   4.261   2.727
 2825SOL    HW1 8484   4.302   4.327   2.653
 2825SOL    HW2 8485   4.336   4.295   2.810
 2826SOL     OW 8486   4.228   3.774   3.602
 2826SOL    HW1 8487   4.186   3.717   3.532
 2826SOL    HW2 8488   4.162   3.843   3.634
 2827SOL     OW 8489   4.031   3.937   3.093
 2827SOL    HW1 8490   4.008   3.974   3.183
 2827SOL    HW2 8491   4.001   3.842   3.087
 2828SOL     OW 8492   4.031   3.787   2.480
 2828SOL    HW1 8493   4.020   3.881   2.513
 2828SOL    HW2 8494   4.026   3.724   2.557
 2829SOL     OW 8495   4.043   4.534   2.811
 2829SOL    HW1 8496   4.136   4.570   2.816
 2829SOL    HW2 8497   4.037   4.449   2.863
 2830SOL     OW 8498   4.063   4.233   2.868
 2830SOL    HW1 8499   4.011   4.150   2.851
 2830SOL    HW2 8500   4.140   4.238   2.804
 2831SOL     OW 8501   3.764   4.268   2.976
 2831SOL    HW1 8502   3.849   4.235   2.935
 2831SOL    HW2 8503   3.777   4.283   3.074
 2832SOL     OW 8504   3.913   4.244   3.584
 2832SOL    HW1 8505   3.972   4.204   3.514
 2832SOL    HW2 8506   3.855   4.315   3.543
 2833SOL     OW 8507   4.539   4.296   2.187
 2833SOL    HW1 8508   4.546   4.207   2.141
 2833SOL    HW2 8509   4.445   4.330   2.179
 2834SOL     OW 8510   4.197   4.224   2.053
 2834SOL    HW1 8511   4.258   4.304   2.057
 2834SOL    HW2 8512   4.102   4.255   2.060
 2835SOL     OW 8513   3.987   4.050   2.582
 2835SOL    HW1 8514   3.908   4.101   2.548
 2835SOL    HW2 8515   3.978   4.035   2.680
 2836SOL     OW 8516   4.396   3.927   3.351
 2836SOL    HW1 8517   4.486   3.911   3.311
 2836SOL    HW2 8518   4.404   3.932   3.450
 2837SOL     OW 8519   3.799   4.069   1.895
 2837SOL    HW1 8520   3.707   4.041   1.866
 2837SOL    HW2 8521   3.830   4.146   1.839
 2838SOL     OW 8522   3.796   3.890   2.180
 2838SOL    HW1 8523   3.779   3.973   2.126
 2838SOL    HW2 8524   3.886   3.853   2.158
 2839SOL     OW 8525   4.152   4.148   2.382
 2839SOL    HW1 8526   4.182   4.076   2.320
 2839SOL    HW2 8527   4.113   4.108   2.465
 2840SOL     OW 8528   4.041   4.271   3.142
 2840SOL    HW1 8529   4.079   4.212   3.214
 2840SOL    HW2 8530   4.081   4.245   3.054
 2841SOL     OW 8531   3.846   4.367   4.287
 2841SOL    HW1 8532   3.801   4.279   4.304
 2841SOL    HW2 8533   3.845   4.421   4.371
 2842SOL     OW 8534   4.533   3.728   4.226
 2842SOL    HW1 8535   4.573   3.819   4.217
 2842SOL    HW2 8536   4.433   3.736   4.232
 2843SOL     OW 8537   4.338   3.846   3.841
 2843SOL    HW1 8538   4.436   3.824   3.848
 2843SOL    HW2 8539   4.307   3.829   3.748
 2844SOL     OW 8540   4.263   3.788   4.236
 2844SOL    HW1 8541   4.182   3.789   4.294
 2844SOL    HW2 8542   4.266   3.871   4.181
 2845SOL     OW 8543   4.021   3.759   3.895
 2845SOL    HW1 8544   4.070   3.843   3.874
 2845SOL    HW2 8545   4.083   3.694   3.940
 2846SOL     OW 8546   4.659   3.960   4.204
 2846SOL    HW1 8547   4.611   4.001   4.126
 2846SOL    HW2 8548   4.758   3.958   4.185
 2847SOL     OW 8549   4.251   3.980   4.052
 2847SOL    HW1 8550   4.278   3.921   3.977
 2847SOL    HW2 8551   4.251   4.075   4.021
 2848SOL     OW 8552   4.031   3.787   4.342
 2848SOL    HW1 8553   4.020   3.881   4.375
 2848SOL    HW2 8554   4.026   3.724   4.419
 2849SOL     OW 8555   4.539   4.296   4.049
 2849SOL    HW1 8556   4.546   4.207   4.003
 2849SOL    HW2 8557   4.445   4.330   4.041
 2850SOL     OW 8558   4.197   4.224   3.915
 2850SOL    HW1 8559   4.258   4.304   3.919
 2850SOL    HW2 8560   4.102   4.255   3.922
 2851SOL     OW 8561   3.799   4.069   3.757
 2851SOL    HW1 8562   3.707   4.041   3.728
 2851SOL    HW2 8563   3.830   4.146   3.701
 2852SOL     OW 8564   3.796   3.890   4.042
 2852SOL    HW1 8565   3.779   3.973   3.988
 2852SOL    HW2 8566   3.886   3.853   4.020
 2853SOL     OW 8567   4.152   4.148   4.244
 2853SOL    HW1 8568   4.182   4.076   4.182
 2853SOL    HW2 8569   4.113   4.108   4.327
   4.44028   4.44028   4.44028
