mobley_5627459_GMX.gro created by acpype (v: 2023.10.27) on Thu May 21 00:03:51 2026
   13
    1MOL     C1    1   2.173   2.358   2.273
    1MOL     C2    2   2.349   2.219   2.169
    1MOL     C3    3   2.137   2.110   2.249
    1MOL     C4    4   2.199   2.236   2.188
    1MOL     O1    5   2.111   2.358   2.379
    1MOL     H1    6   2.211   2.454   2.231
    1MOL     H2    7   2.393   2.308   2.123
    1MOL     H3    8   2.371   2.133   2.104
    1MOL     H4    9   2.400   2.203   2.265
    1MOL     H5   10   2.154   2.023   2.185
    1MOL     H6   11   2.028   2.122   2.261
    1MOL     H7   12   2.179   2.089   2.348
    1MOL     H8   13   2.152   2.255   2.090
   4.44028   4.44028   4.44028
