mobley_6988468_GMX.gro created by acpype (v: 2023.10.27) on Thu May 21 00:04:40 2026
   17
    1MOL     C1    1   2.401   2.518   2.216
    1MOL     C2    2   2.290   2.480   2.140
    1MOL     C3    3   2.422   2.460   2.341
    1MOL     C4    4   2.205   2.385   2.193
    1MOL     C5    5   2.330   2.365   2.385
    1MOL     C6    6   2.434   2.174   2.509
    1MOL     C7    7   2.350   2.301   2.518
    1MOL     N1    8   2.222   2.326   2.314
    1MOL     H1    9   2.470   2.593   2.178
    1MOL     H2   10   2.272   2.524   2.043
    1MOL     H3   11   2.507   2.489   2.401
    1MOL     H4   12   2.118   2.352   2.138
    1MOL     H5   13   2.387   2.100   2.444
    1MOL     H6   14   2.447   2.129   2.608
    1MOL     H7   15   2.534   2.196   2.469
    1MOL     H8   16   2.398   2.372   2.588
    1MOL     H9   17   2.253   2.277   2.563
   4.71125   4.71125   4.71125
