; mobley_6981465_GMX_OPLS.top created by acpype (v: 2023.10.27) on Wed May 20 23:43:22 2026

; Include forcefield parameters
#include "ffoplsaa.itp"

; Include mobley_6981465_GMX.itp topology
#include "mobley_6981465_GMX.itp"

; Ligand position restraints
#ifdef POSRES_LIG
#include "posre_mobley_6981465.itp"
#endif

[ system ]
 mobley_6981465

[ molecules ]
; Compound        nmols
 mobley_6981465   1     
