isopropyl_acetate
    17
   0.9630000   3.1040000   2.2230000   1.0550000   4.4990000   1.6830000
   1.0770000   0.0500000   0.1960000   2.8430000   1.0380000   1.6980000
   1.3530000   0.9190000   1.4130000   1.0160000   2.8250000   3.4140000
   0.8120000   2.2180000   1.1940000   0.1360000   4.7520000   1.1500000
   1.9210000   4.5830000   1.0210000   1.1820000   5.2010000   2.5120000
   1.4530000  -0.9670000   0.3400000   0.0000000   0.0000000   0.0000000
   1.5400000   0.4710000  -0.7030000   3.2880000   0.0590000   1.8990000
   3.0140000   1.6860000   2.5640000   3.3700000   1.4960000   0.8530000
   0.8470000   0.4960000   2.2870000
