1,2,3,4-tetrachloro-5-(3,4-dich
    22
   1.8850000  -1.0360000  -0.1120000   0.8070000  -0.4630000   0.5610000
   2.8780000  -1.6520000   2.0020000   5.1370000  -1.4110000  -0.3700000
   2.9210000  -1.6310000   0.6080000   4.0400000  -2.2250000  -0.0910000
   0.7640000  -0.4840000   1.9550000   1.8000000  -1.0790000   2.6760000
   6.2410000  -1.9340000  -1.0430000   4.0460000  -3.5630000  -0.4850000
   6.2470000  -3.2720000  -1.4370000   5.1500000  -4.0870000  -1.1580000
  -0.5980000   0.2460000   2.7310000   1.8050000  -1.1320000   4.4040000
   7.5640000  -0.8610000  -1.3530000   2.6650000  -4.5620000  -0.1260000
   7.6320000  -3.9110000  -2.2780000   5.1560000  -5.7590000  -1.6490000
   1.9030000  -1.0140000  -1.2000000   0.0080000  -0.0050000  -0.0170000
   3.6870000  -2.1180000   2.5630000   5.1320000  -0.3660000  -0.0620000
