; mobley_1034539_GMX_OPLS.top created by acpype (v: 2023.10.27) on Wed May 20 23:43:28 2026

; Include forcefield parameters
#include "ffoplsaa.itp"

; Include mobley_1034539_GMX.itp topology
#include "mobley_1034539_GMX.itp"

; Ligand position restraints
#ifdef POSRES_LIG
#include "posre_mobley_1034539.itp"
#endif

[ system ]
 mobley_1034539

[ molecules ]
; Compound        nmols
 mobley_1034539   1     
