mobley_1034539_GMX.gro created by acpype (v: 2023.10.27) on Wed May 20 23:43:28 2026
 22
    1  MOL   C1    1   0.189  -0.104  -0.011
    1  MOL   C2    2   0.081  -0.046   0.056
    1  MOL   C3    3   0.288  -0.165   0.200
    1  MOL   C4    4   0.514  -0.141  -0.037
    1  MOL   C5    5   0.292  -0.163   0.061
    1  MOL   C6    6   0.404  -0.223  -0.009
    1  MOL   C7    7   0.076  -0.048   0.196
    1  MOL   C8    8   0.180  -0.108   0.268
    1  MOL   C9    9   0.624  -0.193  -0.104
    1  MOL  C10   10   0.405  -0.356  -0.049
    1  MOL  C11   11   0.625  -0.327  -0.144
    1  MOL  C12   12   0.515  -0.409  -0.116
    1  MOL  CL1   13  -0.060   0.025   0.273
    1  MOL  CL2   14   0.180  -0.113   0.440
    1  MOL  CL3   15   0.756  -0.086  -0.135
    1  MOL  CL4   16   0.267  -0.456  -0.013
    1  MOL  CL5   17   0.763  -0.391  -0.228
    1  MOL  CL6   18   0.516  -0.576  -0.165
    1  MOL   H1   19   0.190  -0.101  -0.120
    1  MOL   H2   20   0.001  -0.001  -0.002
    1  MOL   H3   21   0.369  -0.212   0.256
    1  MOL   H4   22   0.513  -0.037  -0.006
   16.46000    12.01000    13.36400
