mobley_8311303_GMX.gro created by acpype (v: 2023.10.27) on Wed May 20 23:44:41 2026
   22
    1MOL     C1    1   2.335   2.580   2.452
    1MOL     C2    2   2.227   2.638   2.519
    1MOL     C3    3   2.434   2.519   2.663
    1MOL     C4    4   2.766   2.347   2.319
    1MOL     C5    5   2.438   2.521   2.524
    1MOL     C6    6   2.550   2.461   2.454
    1MOL     C7    7   2.222   2.636   2.659
    1MOL     C8    8   2.326   2.576   2.731
    1MOL     C9    9   2.770   2.481   2.356
    1MOL    C10   10   2.654   2.270   2.349
    1MOL    C11   11   2.662   2.539   2.424
    1MOL    C12   12   2.546   2.327   2.417
    1MOL    CL1   13   2.086   2.709   2.736
    1MOL    CL2   14   2.326   2.571   2.903
    1MOL    CL3   15   2.913   2.571   2.315
    1MOL    CL4   16   2.655   2.104   2.300
    1MOL    CL5   17   2.668   2.706   2.470
    1MOL    CL6   18   2.406   2.230   2.454
    1MOL     H1   19   2.336   2.583   2.343
    1MOL     H2   20   2.147   2.683   2.461
    1MOL     H3   21   2.515   2.472   2.719
    1MOL     H4   22   2.850   2.302   2.266
   4.98501   4.98501   4.98501
