mobley_3040612_GMX.gro created by acpype (v: 2023.10.27) on Wed May 20 23:59:15 2026
 21
    1  MOL   C1    1   0.326  -0.193   0.050
    1  MOL   C2    2   0.233  -0.128  -0.031
    1  MOL   C3    3   0.314  -0.186   0.189
    1  MOL   C4    4   0.130  -0.055   0.026
    1  MOL   C5    5   0.210  -0.113   0.246
    1  MOL   C6    6   0.118  -0.047   0.165
    1  MOL   C7    7   0.200  -0.107   0.395
    1  MOL   C8    8  -0.107  -0.058   0.276
    1  MOL   C9    9   0.006   0.032   0.225
    1  MOL   H1   10   0.407  -0.250   0.005
    1  MOL   H2   11   0.242  -0.133  -0.140
    1  MOL   H3   12   0.387  -0.238   0.251
    1  MOL   H4   13   0.058  -0.004  -0.038
    1  MOL   H5   14   0.257  -0.021   0.434
    1  MOL   H6   15   0.095  -0.097   0.427
    1  MOL   H7   16   0.239  -0.198   0.442
    1  MOL   H8   17  -0.146  -0.122   0.196
    1  MOL   H9   18  -0.189   0.003   0.315
    1  MOL  H10   19  -0.072  -0.123   0.357
    1  MOL  H11   20   0.043   0.094   0.307
    1  MOL  H12   21  -0.035   0.102   0.150
   11.92200     7.04200    11.62000
