SAMPL4_039
    21
   3.2580000  -1.9340000   0.4980000   2.3340000  -1.2760000  -0.3140000
   3.1420000  -1.8620000   1.8860000   1.2950000  -0.5460000   0.2620000
   2.1030000  -1.1310000   2.4630000   1.1790000  -0.4730000   1.6510000
   1.9980000  -1.0690000   3.9510000  -1.0670000  -0.5770000   2.7590000
   0.0590000   0.3150000   2.2450000   4.0670000  -2.5020000   0.0490000
   2.4250000  -1.3320000  -1.3950000   3.8680000  -2.3770000   2.5100000
   0.5800000  -0.0370000  -0.3790000   2.5650000  -0.2130000   4.3360000
   0.9540000  -0.9690000   4.2710000   2.3880000  -1.9840000   4.4150000
  -1.4600000  -1.2150000   1.9600000  -1.8940000   0.0290000   3.1450000
  -0.7160000  -1.2270000   3.5670000   0.4290000   0.9430000   3.0710000
  -0.3480000   1.0190000   1.5020000
