; mobley_3040612_GMX_OPLS.top created by acpype (v: 2023.10.27) on Wed May 20 23:59:15 2026

; Include forcefield parameters
#include "ffoplsaa.itp"

; Include mobley_3040612_GMX.itp topology
#include "mobley_3040612_GMX.itp"

; Ligand position restraints
#ifdef POSRES_LIG
#include "posre_mobley_3040612.itp"
#endif

[ system ]
 mobley_3040612

[ molecules ]
; Compound        nmols
 mobley_3040612   1     
