; mobley_3040612_GMX_OPLS.itp created by acpype (v: 2023.10.27) on Wed May 20 23:59:15 2026

; For OPLS atomtypes manual fine tuning
; AC_at:OPLS_at:OPLScode: Possible_Alternatives (see ffoplsaa.atp and ffoplsaanb.itp)
; ca:CA:opls_145: ['166', '501', '502']
; c3:CT:opls_135: ['136', '137', '149', '157', '158', '206', '209', '210', '223B', '224B', '245', '246', '274', '283', '284', '285', '292', '292B', '293B', '296', '307', '308', '505']
; ha:HA:opls_146: []
; hc:HC:opls_140: []

[ moleculetype ]
;name            nrexcl
 mobley_3040612   3

[ atoms ]
;   nr  type  resi  res  atom  cgnr     charge      mass       ; qtot   bond_type
     1 opls_145     1   MOL    C1    1    -0.130000     12.01100 ; qtot -0.130  CA  
     2 opls_145     1   MOL    C2    2    -0.134000     12.01100 ; qtot -0.264  CA  
     3 opls_145     1   MOL    C3    3    -0.129000     12.01100 ; qtot -0.393  CA  
     4 opls_145     1   MOL    C4    4    -0.126000     12.01100 ; qtot -0.519  CA  
     5 opls_145     1   MOL    C5    5    -0.073300     12.01100 ; qtot -0.592  CA  
     6 opls_145     1   MOL    C6    6    -0.076300     12.01100 ; qtot -0.669  CA  
     7 opls_135     1   MOL    C7    7    -0.052800     12.01100 ; qtot -0.721  CT  
     8 opls_135     1   MOL    C8    8    -0.089100     12.01100 ; qtot -0.810  CT  
     9 opls_135     1   MOL    C9    9    -0.039100     12.01100 ; qtot -0.850  CT  
    10 opls_146     1   MOL    H1   10     0.130000      1.00800 ; qtot -0.720  HA  
    11 opls_146     1   MOL    H2   11     0.130000      1.00800 ; qtot -0.590  HA  
    12 opls_146     1   MOL    H3   12     0.129000      1.00800 ; qtot -0.461  HA  
    13 opls_146     1   MOL    H4   13     0.130000      1.00800 ; qtot -0.331  HA  
    14 opls_140     1   MOL    H5   14     0.043700      1.00800 ; qtot -0.287  HC  
    15 opls_140     1   MOL    H6   15     0.043700      1.00800 ; qtot -0.243  HC  
    16 opls_140     1   MOL    H7   16     0.043700      1.00800 ; qtot -0.200  HC  
    17 opls_140     1   MOL    H8   17     0.035700      1.00800 ; qtot -0.164  HC  
    18 opls_140     1   MOL    H9   18     0.035700      1.00800 ; qtot -0.128  HC  
    19 opls_140     1   MOL   H10   19     0.035700      1.00800 ; qtot -0.092  HC  
    20 opls_140     1   MOL   H11   20     0.046200      1.00800 ; qtot -0.046  HC  
    21 opls_140     1   MOL   H12   21     0.046200      1.00800 ; qtot  0.000  HC  

[ bonds ]
;   ai     aj funct   r             k
     1      2   1 ;    1.3986e-01    2.9644e+05 ;     C1 - C2         CA - CA    
     1      3   1 ;    1.3986e-01    2.9644e+05 ;     C1 - C3         CA - CA    
     1     10   1 ;    1.0860e-01    3.0183e+05 ;     C1 - H1         CA - HA    
     2      4   1 ;    1.3986e-01    2.9644e+05 ;     C2 - C4         CA - CA    
     2     11   1 ;    1.0860e-01    3.0183e+05 ;     C2 - H2         CA - HA    
     3      5   1 ;    1.3986e-01    2.9644e+05 ;     C3 - C5         CA - CA    
     3     12   1 ;    1.0860e-01    3.0183e+05 ;     C3 - H3         CA - HA    
     4      6   1 ;    1.3986e-01    2.9644e+05 ;     C4 - C6         CA - CA    
     4     13   1 ;    1.0860e-01    3.0183e+05 ;     C4 - H4         CA - HA    
     5      6   1 ;    1.3986e-01    2.9644e+05 ;     C5 - C6         CA - CA    
     5      7   1 ;    1.5147e-01    2.0410e+05 ;     C5 - C7         CA - CT    
     6      9   1 ;    1.5147e-01    2.0410e+05 ;     C6 - C9         CA - CT    
     7     14   1 ;    1.0962e-01    2.8891e+05 ;     C7 - H5         CT - HC    
     7     15   1 ;    1.0962e-01    2.8891e+05 ;     C7 - H6         CT - HC    
     7     16   1 ;    1.0962e-01    2.8891e+05 ;     C7 - H7         CT - HC    
     8      9   1 ;    1.5354e-01    1.9154e+05 ;     C8 - C9         CT - CT    
     8     17   1 ;    1.0962e-01    2.8891e+05 ;     C8 - H8         CT - HC    
     8     18   1 ;    1.0962e-01    2.8891e+05 ;     C8 - H9         CT - HC    
     8     19   1 ;    1.0962e-01    2.8891e+05 ;     C8 - H10        CT - HC    
     9     20   1 ;    1.0962e-01    2.8891e+05 ;     C9 - H11        CT - HC    
     9     21   1 ;    1.0962e-01    2.8891e+05 ;     C9 - H12        CT - HC    

[ pairs ]
;   ai     aj    funct
     1      6      1 ;     C1 - C6    
     1      7      1 ;     C1 - C7    
     1     13      1 ;     C1 - H4    
     2      5      1 ;     C2 - C5    
     2      9      1 ;     C2 - C9    
     2     12      1 ;     C2 - H3    
     3      4      1 ;     C3 - C4    
     3      9      1 ;     C3 - C9    
     3     11      1 ;     C3 - H2    
     3     14      1 ;     C3 - H5    
     3     15      1 ;     C3 - H6    
     3     16      1 ;     C3 - H7    
     4      7      1 ;     C4 - C7    
     4      8      1 ;     C4 - C8    
     4     20      1 ;     C4 - H11   
     4     21      1 ;     C4 - H12   
     5      8      1 ;     C5 - C8    
     5     13      1 ;     C5 - H4    
     5     20      1 ;     C5 - H11   
     5     21      1 ;     C5 - H12   
     6     11      1 ;     C6 - H2    
     6     12      1 ;     C6 - H3    
     6     14      1 ;     C6 - H5    
     6     15      1 ;     C6 - H6    
     6     16      1 ;     C6 - H7    
     6     17      1 ;     C6 - H8    
     6     18      1 ;     C6 - H9    
     6     19      1 ;     C6 - H10   
     7      9      1 ;     C7 - C9    
     7     12      1 ;     C7 - H3    
     9     13      1 ;     C9 - H4    
    10      4      1 ;     H1 - C4    
    10      5      1 ;     H1 - C5    
    10     11      1 ;     H1 - H2    
    10     12      1 ;     H1 - H3    
    11     13      1 ;     H2 - H4    
    17     20      1 ;     H8 - H11   
    17     21      1 ;     H8 - H12   
    18     20      1 ;     H9 - H11   
    18     21      1 ;     H9 - H12   
    19     20      1 ;    H10 - H11   
    19     21      1 ;    H10 - H12   

[ angles ]
;   ai     aj     ak    funct   theta         cth
     1      2      4      1 ;    1.2002e+02    5.3279e+02 ;     C1 - C2   - C4       CA -   CA - CA  
     1      2     11      1 ;    1.1988e+02    3.7572e+02 ;     C1 - C2   - H2       CA -   CA - HA  
     1      3      5      1 ;    1.2002e+02    5.3279e+02 ;     C1 - C3   - C5       CA -   CA - CA  
     1      3     12      1 ;    1.1988e+02    3.7572e+02 ;     C1 - C3   - H3       CA -   CA - HA  
     2      1      3      1 ;    1.2002e+02    5.3279e+02 ;     C2 - C1   - C3       CA -   CA - CA  
     2      1     10      1 ;    1.1988e+02    3.7572e+02 ;     C2 - C1   - H1       CA -   CA - HA  
     2      4      6      1 ;    1.2002e+02    5.3279e+02 ;     C2 - C4   - C6       CA -   CA - CA  
     2      4     13      1 ;    1.1988e+02    3.7572e+02 ;     C2 - C4   - H4       CA -   CA - HA  
     3      1     10      1 ;    1.1988e+02    3.7572e+02 ;     C3 - C1   - H1       CA -   CA - HA  
     3      5      6      1 ;    1.2002e+02    5.3279e+02 ;     C3 - C5   - C6       CA -   CA - CA  
     3      5      7      1 ;    1.2083e+02    5.0827e+02 ;     C3 - C5   - C7       CA -   CA - CT  
     4      2     11      1 ;    1.1988e+02    3.7572e+02 ;     C4 - C2   - H2       CA -   CA - HA  
     4      6      5      1 ;    1.2002e+02    5.3279e+02 ;     C4 - C6   - C5       CA -   CA - CA  
     4      6      9      1 ;    1.2083e+02    5.0827e+02 ;     C4 - C6   - C9       CA -   CA - CT  
     5      3     12      1 ;    1.1988e+02    3.7572e+02 ;     C5 - C3   - H3       CA -   CA - HA  
     5      6      9      1 ;    1.2083e+02    5.0827e+02 ;     C5 - C6   - C9       CA -   CA - CT  
     5      7     14      1 ;    1.1063e+02    3.6493e+02 ;     C5 - C7   - H5       CA -   CT - HC  
     5      7     15      1 ;    1.1063e+02    3.6493e+02 ;     C5 - C7   - H6       CA -   CT - HC  
     5      7     16      1 ;    1.1063e+02    3.6493e+02 ;     C5 - C7   - H7       CA -   CT - HC  
     6      4     13      1 ;    1.1988e+02    3.7572e+02 ;     C6 - C4   - H4       CA -   CA - HA  
     6      5      7      1 ;    1.2083e+02    5.0827e+02 ;     C6 - C5   - C7       CA -   CA - CT  
     6      9      8      1 ;    1.1242e+02    5.0484e+02 ;     C6 - C9   - C8       CA -   CT - CT  
     6      9     20      1 ;    1.1063e+02    3.6493e+02 ;     C6 - C9   - H11      CA -   CT - HC  
     6      9     21      1 ;    1.1063e+02    3.6493e+02 ;     C6 - C9   - H12      CA -   CT - HC  
     8      9     20      1 ;    1.0968e+02    3.6208e+02 ;     C8 - C9   - H11      CT -   CT - HC  
     8      9     21      1 ;    1.0968e+02    3.6208e+02 ;     C8 - C9   - H12      CT -   CT - HC  
     9      8     17      1 ;    1.0968e+02    3.6208e+02 ;     C9 - C8   - H8       CT -   CT - HC  
     9      8     18      1 ;    1.0968e+02    3.6208e+02 ;     C9 - C8   - H9       CT -   CT - HC  
     9      8     19      1 ;    1.0968e+02    3.6208e+02 ;     C9 - C8   - H10      CT -   CT - HC  
    14      7     15      1 ;    1.0773e+02    2.9957e+02 ;     H5 - C7   - H6       HC -   CT - HC  
    14      7     16      1 ;    1.0773e+02    2.9957e+02 ;     H5 - C7   - H7       HC -   CT - HC  
    15      7     16      1 ;    1.0773e+02    2.9957e+02 ;     H6 - C7   - H7       HC -   CT - HC  
    17      8     18      1 ;    1.0773e+02    2.9957e+02 ;     H8 - C8   - H9       HC -   CT - HC  
    17      8     19      1 ;    1.0773e+02    2.9957e+02 ;     H8 - C8   - H10      HC -   CT - HC  
    18      8     19      1 ;    1.0773e+02    2.9957e+02 ;     H9 - C8   - H10      HC -   CT - HC  
    20      9     21      1 ;    1.0773e+02    2.9957e+02 ;    H11 - C9   - H12      HC -   CT - HC  

[ dihedrals ] ; propers
; for gromacs 4.5 or higher, using funct 9
;    i      j      k      l   func   phase     kd      pn
     1      2      4      6      9 ;   180.00  15.16700   2 ;     C1-    C2-    C4-    C6
     1      2      4     13      9 ;   180.00  15.16700   2 ;     C1-    C2-    C4-    H4
     1      3      5      6      9 ;   180.00  15.16700   2 ;     C1-    C3-    C5-    C6
     1      3      5      7      9 ;   180.00  15.16700   2 ;     C1-    C3-    C5-    C7
     2      1      3      5      9 ;   180.00  15.16700   2 ;     C2-    C1-    C3-    C5
     2      1      3     12      9 ;   180.00  15.16700   2 ;     C2-    C1-    C3-    H3
     2      4      6      5      9 ;   180.00  15.16700   2 ;     C2-    C4-    C6-    C5
     2      4      6      9      9 ;   180.00  15.16700   2 ;     C2-    C4-    C6-    C9
     3      1      2      4      9 ;   180.00  15.16700   2 ;     C3-    C1-    C2-    C4
     3      1      2     11      9 ;   180.00  15.16700   2 ;     C3-    C1-    C2-    H2
     3      5      6      4      9 ;   180.00  15.16700   2 ;     C3-    C5-    C6-    C4
     3      5      6      9      9 ;   180.00  15.16700   2 ;     C3-    C5-    C6-    C9
     3      5      7     14      9 ;     0.00   0.00000   0 ;     C3-    C5-    C7-    H5
     3      5      7     15      9 ;     0.00   0.00000   0 ;     C3-    C5-    C7-    H6
     3      5      7     16      9 ;     0.00   0.00000   0 ;     C3-    C5-    C7-    H7
     4      6      5      7      9 ;   180.00  15.16700   2 ;     C4-    C6-    C5-    C7
     4      6      9      8      9 ;   180.00   1.00416   2 ;     C4-    C6-    C9-    C8
     4      6      9     20      9 ;     0.00   0.00000   0 ;     C4-    C6-    C9-   H11
     4      6      9     21      9 ;     0.00   0.00000   0 ;     C4-    C6-    C9-   H12
     5      6      4     13      9 ;   180.00  15.16700   2 ;     C5-    C6-    C4-    H4
     5      6      9      8      9 ;   180.00   1.00416   2 ;     C5-    C6-    C9-    C8
     5      6      9     20      9 ;     0.00   0.00000   0 ;     C5-    C6-    C9-   H11
     5      6      9     21      9 ;     0.00   0.00000   0 ;     C5-    C6-    C9-   H12
     6      4      2     11      9 ;   180.00  15.16700   2 ;     C6-    C4-    C2-    H2
     6      5      3     12      9 ;   180.00  15.16700   2 ;     C6-    C5-    C3-    H3
     6      5      7     14      9 ;     0.00   0.00000   0 ;     C6-    C5-    C7-    H5
     6      5      7     15      9 ;     0.00   0.00000   0 ;     C6-    C5-    C7-    H6
     6      5      7     16      9 ;     0.00   0.00000   0 ;     C6-    C5-    C7-    H7
     6      9      8     17      9 ;     0.00   0.65084   3 ;     C6-    C9-    C8-    H8
     6      9      8     18      9 ;     0.00   0.65084   3 ;     C6-    C9-    C8-    H9
     6      9      8     19      9 ;     0.00   0.65084   3 ;     C6-    C9-    C8-   H10
     7      5      3     12      9 ;   180.00  15.16700   2 ;     C7-    C5-    C3-    H3
     7      5      6      9      9 ;   180.00  15.16700   2 ;     C7-    C5-    C6-    C9
     9      6      4     13      9 ;   180.00  15.16700   2 ;     C9-    C6-    C4-    H4
    10      1      2      4      9 ;   180.00  15.16700   2 ;     H1-    C1-    C2-    C4
    10      1      2     11      9 ;   180.00  15.16700   2 ;     H1-    C1-    C2-    H2
    10      1      3      5      9 ;   180.00  15.16700   2 ;     H1-    C1-    C3-    C5
    10      1      3     12      9 ;   180.00  15.16700   2 ;     H1-    C1-    C3-    H3
    11      2      4     13      9 ;   180.00  15.16700   2 ;     H2-    C2-    C4-    H4
    17      8      9     20      9 ;     0.00   0.50208   3 ;     H8-    C8-    C9-   H11
    17      8      9     21      9 ;     0.00   0.50208   3 ;     H8-    C8-    C9-   H12
    18      8      9     20      9 ;     0.00   0.50208   3 ;     H9-    C8-    C9-   H11
    18      8      9     21      9 ;     0.00   0.50208   3 ;     H9-    C8-    C9-   H12
    19      8      9     20      9 ;     0.00   0.50208   3 ;    H10-    C8-    C9-   H11
    19      8      9     21      9 ;     0.00   0.50208   3 ;    H10-    C8-    C9-   H12

[ dihedrals ] ; impropers
; treated as propers in GROMACS to use correct AMBER analytical function
;    i      j      k      l   func   phase     kd      pn
     1      4      2     11      4 ;   180.00   4.60240   2 ;     C1-    C4-    C2-    H2
     1      5      3     12      4 ;   180.00   4.60240   2 ;     C1-    C5-    C3-    H3
     2      6      4     13      4 ;   180.00   4.60240   2 ;     C2-    C6-    C4-    H4
     3      6      5      7      4 ;   180.00   4.60240   2 ;     C3-    C6-    C5-    C7
     9      4      6      5      4 ;   180.00   4.60240   2 ;     C9-    C4-    C6-    C5
    10      1      3      2      4 ;   180.00   4.60240   2 ;     H1-    C1-    C3-    C2
