; mobley_1967551_GMX_OPLS.top created by acpype (v: 2023.10.27) on Wed May 20 23:50:19 2026

; Include forcefield parameters
#include "ffoplsaa.itp"

; Include mobley_1967551_GMX.itp topology
#include "mobley_1967551_GMX.itp"

; Ligand position restraints
#ifdef POSRES_LIG
#include "posre_mobley_1967551.itp"
#endif

[ system ]
 mobley_1967551

[ molecules ]
; Compound        nmols
 mobley_1967551   1     
