mobley_1967551_GMX.gro created by acpype (v: 2023.10.27) on Wed May 20 23:50:19 2026
 7
    1  MOL   C1    1  -0.150  -0.096   0.115
    1  MOL   C2    2  -0.059  -0.092  -0.003
    1  MOL   O1    3  -0.148  -0.185   0.200
    1  MOL   H1    4  -0.222  -0.013   0.123
    1  MOL   H2    5   0.000   0.000   0.000
    1  MOL   H3    6   0.008  -0.178  -0.002
    1  MOL   H4    7  -0.119  -0.094  -0.095
    4.61200     3.69800     5.88800
