; mobley_1967551_GMX_OPLS.itp created by acpype (v: 2023.10.27) on Wed May 20 23:50:19 2026

; For OPLS atomtypes manual fine tuning
; AC_at:OPLS_at:OPLScode: Possible_Alternatives (see ffoplsaa.atp and ffoplsaanb.itp)
; c:C:opls_235: ['271']
; c3:CT:opls_135: ['136', '137', '149', '157', '158', '206', '209', '210', '223B', '224B', '245', '246', '274', '283', '284', '285', '292', '292B', '293B', '296', '307', '308', '505']
; o:O:opls_236: ['272']
; h4:HA:opls_146: []
; hc:HC:opls_140: []

[ moleculetype ]
;name            nrexcl
 mobley_1967551   3

[ atoms ]
;   nr  type  resi  res  atom  cgnr     charge      mass       ; qtot   bond_type
     1 opls_235     1   MOL    C1    1     0.561901     12.01100 ; qtot  0.562  C   
     2 opls_135     1   MOL    C2    2    -0.221100     12.01100 ; qtot  0.341  CT  
     3 opls_236     1   MOL    O1    3    -0.526100     15.99940 ; qtot -0.185  O   
     4 opls_146     1   MOL    H1    4    -0.009800      1.00800 ; qtot -0.195  HA  
     5 opls_140     1   MOL    H2    5     0.065033      1.00800 ; qtot -0.130  HC  
     6 opls_140     1   MOL    H3    6     0.065033      1.00800 ; qtot -0.065  HC  
     7 opls_140     1   MOL    H4    7     0.065033      1.00800 ; qtot  0.000  HC  

[ bonds ]
;   ai     aj funct   r             k
     1      2   1 ;    1.5270e-01    1.9652e+05 ;     C1 - C2          C - CT    
     1      3   1 ;    1.2190e-01    4.9421e+05 ;     C1 - O1          C - O     
     1      4   1 ;    1.1123e-01    2.6984e+05 ;     C1 - H1          C - HA    
     2      5   1 ;    1.0962e-01    2.8891e+05 ;     C2 - H2         CT - HC    
     2      6   1 ;    1.0962e-01    2.8891e+05 ;     C2 - H3         CT - HC    
     2      7   1 ;    1.0962e-01    2.8891e+05 ;     C2 - H4         CT - HC    

[ pairs ]
;   ai     aj    funct
     3      5      1 ;     O1 - H2    
     3      6      1 ;     O1 - H3    
     3      7      1 ;     O1 - H4    
     4      5      1 ;     H1 - H2    
     4      6      1 ;     H1 - H3    
     4      7      1 ;     H1 - H4    

[ angles ]
;   ai     aj     ak    funct   theta         cth
     1      2      5      1 ;    1.0895e+02    3.6510e+02 ;     C1 - C2   - H2        C -   CT - HC  
     1      2      6      1 ;    1.0895e+02    3.6510e+02 ;     C1 - C2   - H3        C -   CT - HC  
     1      2      7      1 ;    1.0895e+02    3.6510e+02 ;     C1 - C2   - H4        C -   CT - HC  
     2      1      3      1 ;    1.2290e+02    6.3973e+02 ;     C2 - C1   - O1       CT -    C - O   
     2      1      4      1 ;    1.1471e+02    3.5522e+02 ;     C2 - C1   - H1       CT -    C - HA  
     3      1      4      1 ;    1.2062e+02    5.0191e+02 ;     O1 - C1   - H1        O -    C - HA  
     5      2      6      1 ;    1.0773e+02    2.9957e+02 ;     H2 - C2   - H3       HC -   CT - HC  
     5      2      7      1 ;    1.0773e+02    2.9957e+02 ;     H2 - C2   - H4       HC -   CT - HC  
     6      2      7      1 ;    1.0773e+02    2.9957e+02 ;     H3 - C2   - H4       HC -   CT - HC  

[ dihedrals ] ; propers
; for gromacs 4.5 or higher, using funct 9
;    i      j      k      l   func   phase     kd      pn
     3      1      2      5      9 ;     0.00  16.86152   1 ;     O1-    C1-    C2-    H2
     3      1      2      5      9 ;   180.00  15.31344   2 ;     O1-    C1-    C2-    H2
     3      1      2      6      9 ;     0.00  16.86152   1 ;     O1-    C1-    C2-    H3
     3      1      2      6      9 ;   180.00  15.31344   2 ;     O1-    C1-    C2-    H3
     3      1      2      7      9 ;     0.00  16.86152   1 ;     O1-    C1-    C2-    H4
     3      1      2      7      9 ;   180.00  15.31344   2 ;     O1-    C1-    C2-    H4
     4      1      2      5      9 ;   180.00   0.00000   2 ;     H1-    C1-    C2-    H2
     4      1      2      6      9 ;   180.00   0.00000   2 ;     H1-    C1-    C2-    H3
     4      1      2      7      9 ;   180.00   0.00000   2 ;     H1-    C1-    C2-    H4

[ dihedrals ] ; impropers
; treated as propers in GROMACS to use correct AMBER analytical function
;    i      j      k      l   func   phase     kd      pn
     3      1      4      2      4 ;   180.00   4.60240   2 ;     O1-    C1-    H1-    C2
