; mobley_2789243_GMX_OPLS.top created by acpype (v: 2023.10.27) on Wed May 20 23:59:03 2026

; Include forcefield parameters
#include "ffoplsaa.itp"

; Include mobley_2789243_GMX.itp topology
#include "mobley_2789243_GMX.itp"

; Ligand position restraints
#ifdef POSRES_LIG
#include "posre_mobley_2789243.itp"
#endif

[ system ]
 mobley_2789243

[ molecules ]
; Compound        nmols
 mobley_2789243   1     
