%VERSION  VERSION_STAMP = V0001.000  DATE = 05/20/26  23:59:03                  
%FLAG TITLE                                                                     
%FORMAT(20a4)                                                                   
3_chloropyridine                                                                
%FLAG POINTERS                                                                  
%FORMAT(10I8)                                                                   
      11       5       4       7       8       8      16       9       0       0
      47       1       7       8       9       5       7       3       5       0
       0       0       0       0       0       0       0       0      11       0
       0
%FLAG ATOM_NAME                                                                 
%FORMAT(20a4)                                                                   
C1  C2  C3  C4  C5  N1  Cl1 H1  H2  H3  H4  
%FLAG CHARGE                                                                    
%FORMAT(5E16.8)                                                                 
 -4.32415179E+00 -1.60356240E+00  7.16500836E+00  7.34723136E+00 -1.94796387E+00
 -1.19173842E+01 -1.35573912E+00  2.71512270E+00  2.76978960E+00  4.93824330E-01
  6.57825030E-01
%FLAG ATOMIC_NUMBER                                                             
%FORMAT(10I8)                                                                   
       6       6       6       6       6       7      17       1       1       1
       1
%FLAG MASS                                                                      
%FORMAT(5E16.8)                                                                 
  1.20100000E+01  1.20100000E+01  1.20100000E+01  1.20100000E+01  1.20100000E+01
  1.40100000E+01  3.54500000E+01  1.00800000E+00  1.00800000E+00  1.00800000E+00
  1.00800000E+00
%FLAG ATOM_TYPE_INDEX                                                           
%FORMAT(10I8)                                                                   
       1       1       1       1       1       2       3       4       4       5
       5
%FLAG NUMBER_EXCLUDED_ATOMS                                                     
%FORMAT(10I8)                                                                   
       9       9       7       6       5       4       2       2       1       1
       1
%FLAG NONBONDED_PARM_INDEX                                                      
%FORMAT(10I8)                                                                   
       1       2       4       7      11       2       3       5       8      12
       4       5       6       9      13       7       8       9      10      14
      11      12      13      14      15
%FLAG RESIDUE_LABEL                                                             
%FORMAT(20a4)                                                                   
MOL 
%FLAG RESIDUE_POINTER                                                           
%FORMAT(10I8)                                                                   
       1
%FLAG BOND_FORCE_CONSTANT                                                       
%FORMAT(5E16.8)                                                                 
  3.54250000E+02  3.60690000E+02  3.86490000E+02  3.56820000E+02  1.87980000E+02
%FLAG BOND_EQUIL_VALUE                                                          
%FORMAT(5E16.8)                                                                 
  1.39860000E+00  1.08600000E+00  1.33920000E+00  1.08850000E+00  1.75720000E+00
%FLAG ANGLE_FORCE_CONSTANT                                                      
%FORMAT(5E16.8)                                                                 
  6.36700000E+01  4.49000000E+01  6.81700000E+01  4.48000000E+01  6.40600000E+01
  8.31500000E+01  5.01000000E+01
%FLAG ANGLE_EQUIL_VALUE                                                         
%FORMAT(5E16.8)                                                                 
  2.09474507E+00  2.09230160E+00  2.14570870E+00  2.09998106E+00  2.08357495E+00
  2.04622489E+00  2.02493187E+00
%FLAG DIHEDRAL_FORCE_CONSTANT                                                   
%FORMAT(5E16.8)                                                                 
  3.62500000E+00  4.80000000E+00  1.10000000E+00
%FLAG DIHEDRAL_PERIODICITY                                                      
%FORMAT(5E16.8)                                                                 
  2.00000000E+00  2.00000000E+00  2.00000000E+00
%FLAG DIHEDRAL_PHASE                                                            
%FORMAT(5E16.8)                                                                 
  3.14159400E+00  3.14159400E+00  3.14159400E+00
%FLAG SCEE_SCALE_FACTOR                                                         
%FORMAT(5E16.8)                                                                 
  1.20000000E+00  1.20000000E+00  0.00000000E+00
%FLAG SCNB_SCALE_FACTOR                                                         
%FORMAT(5E16.8)                                                                 
  2.00000000E+00  2.00000000E+00  0.00000000E+00
%FLAG SOLTY                                                                     
%FORMAT(5E16.8)                                                                 
  0.00000000E+00  0.00000000E+00  0.00000000E+00  0.00000000E+00  0.00000000E+00
%FLAG LENNARD_JONES_ACOEF                                                       
%FORMAT(5E16.8)                                                                 
  6.96551276E+05  7.69642101E+05  8.49322032E+05  1.49062160E+06  1.64251971E+06
  3.17107030E+06  7.52549148E+04  8.43518904E+04  1.66104821E+05  6.90855956E+03
  6.27751680E+04  7.05112106E+04  1.39186903E+05  5.62610481E+03  4.56536476E+03
%FLAG LENNARD_JONES_BCOEF                                                       
%FORMAT(5E16.8)                                                                 
  5.24668528E+02  5.44830041E+02  5.65406768E+02  9.81118883E+02  1.01742263E+03
  1.82923847E+03  1.09570372E+02  1.14599119E+02  2.08087638E+02  2.10929191E+01
  1.00073628E+02  1.04776275E+02  1.90482178E+02  1.90347353E+01  1.71467049E+01
%FLAG BONDS_INC_HYDROGEN                                                        
%FORMAT(10I8)                                                                   
       0      21       2       3      24       2       6      27       4       9
      30       4
%FLAG BONDS_WITHOUT_HYDROGEN                                                    
%FORMAT(10I8)                                                                   
       0       3       1       0       6       1       3      12       1       6
      15       3       9      12       1       9      15       3      12      18
       5
%FLAG ANGLES_INC_HYDROGEN                                                       
%FORMAT(10I8)                                                                   
       0       3      24       2       0       6      27       4       3       0
      21       2       6       0      21       2      12       3      24       2
      12       9      30       4      15       6      27       7      15       9
      30       7
%FLAG ANGLES_WITHOUT_HYDROGEN                                                   
%FORMAT(10I8)                                                                   
       0       3      12       1       0       6      15       3       3       0
       6       1       3      12       9       1       3      12      18       5
       6      15       9       6       9      12      18       5      12       9
      15       3
%FLAG DIHEDRALS_INC_HYDROGEN                                                    
%FORMAT(10I8)                                                                   
       3       0       6      27       1       3      12       9      30       1
       6       0       3      24       1       6      15       9      30       2
       9      12       3      24       1       9      15       6      27       2
      21       0       3      12       1      21       0       6      15       1
      18      12       3      24       1      18      12       9      30       1
      21       0       3      24       1      21       0       6      27       1
      21       0      -6      -3       3       0      12      -3     -24       3
       0      27      -6     -15       3      12      30      -9     -15       3
%FLAG DIHEDRALS_WITHOUT_HYDROGEN                                                
%FORMAT(10I8)                                                                   
       0       3      12       9       1       0       3      12      18       1
       0       6     -15       9       2       3       0       6      15       1
       3      12      -9      15       1       6       0       3      12       1
       6      15      -9      12       2      15       9      12      18       1
       3       9     -12     -18       3
%FLAG EXCLUDED_ATOMS_LIST                                                       
%FORMAT(10I8)                                                                   
       2       3       4       5       6       7       8       9      10       3
       4       5       6       7       8       9      10      11       4       5
       6       8       9      10      11       5       6       7       9      10
      11       6       7       8       9      11       7       8      10      11
       9      11       9      10       0       0       0
%FLAG HBOND_ACOEF                                                               
%FORMAT(5E16.8)                                                                 

%FLAG HBOND_BCOEF                                                               
%FORMAT(5E16.8)                                                                 

%FLAG HBCUT                                                                     
%FORMAT(5E16.8)                                                                 

%FLAG AMBER_ATOM_TYPE                                                           
%FORMAT(20a4)                                                                   
ca  ca  ca  ca  ca  nb  cl  ha  ha  h4  h4  
%FLAG TREE_CHAIN_CLASSIFICATION                                                 
%FORMAT(20a4)                                                                   
BLA BLA BLA BLA BLA BLA BLA BLA BLA BLA BLA 
%FLAG JOIN_ARRAY                                                                
%FORMAT(10I8)                                                                   
       0       0       0       0       0       0       0       0       0       0
       0
%FLAG IROTAT                                                                    
%FORMAT(10I8)                                                                   
       0       0       0       0       0       0       0       0       0       0
       0
%FLAG RADIUS_SET                                                                
%FORMAT(1a80)                                                                   
modified Bondi radii (mbondi)                                                   
%FLAG RADII                                                                     
%FORMAT(5E16.8)                                                                 
  1.70000000E+00  1.70000000E+00  1.70000000E+00  1.70000000E+00  1.70000000E+00
  1.55000000E+00  1.70000000E+00  1.30000000E+00  1.30000000E+00  1.30000000E+00
  1.30000000E+00
%FLAG SCREEN                                                                    
%FORMAT(5E16.8)                                                                 
  7.20000000E-01  7.20000000E-01  7.20000000E-01  7.20000000E-01  7.20000000E-01
  7.90000000E-01  8.00000000E-01  8.50000000E-01  8.50000000E-01  8.50000000E-01
  8.50000000E-01
%FLAG IPOL                                                                      
%FORMAT(1I8)                                                                    
       0
