mobley_2789243_GMX.gro created by acpype (v: 2023.10.27) on Wed May 20 23:59:03 2026
 11
    1  MOL   C1    1   0.021  -0.044   0.097
    1  MOL   C2    2   0.134  -0.008   0.170
    1  MOL   C3    3  -0.065  -0.139   0.152
    1  MOL   C4    4   0.066  -0.160   0.340
    1  MOL   C5    5   0.157  -0.066   0.293
    1  MOL   N1    6  -0.045  -0.197   0.272
    1  MOL  CL1    7   0.295  -0.024   0.386
    1  MOL   H1    8  -0.000  -0.000  -0.000
    1  MOL   H2    9   0.202   0.066   0.128
    1  MOL   H3   10  -0.154  -0.170   0.099
    1  MOL   H4   11   0.079  -0.209   0.436
    8.99000     5.49000     8.71600
