; mobley_2789243_GMX_OPLS.itp created by acpype (v: 2023.10.27) on Wed May 20 23:59:03 2026

; For OPLS atomtypes manual fine tuning
; AC_at:OPLS_at:OPLScode: Possible_Alternatives (see ffoplsaa.atp and ffoplsaanb.itp)
; ca:CA:opls_145: ['166', '501', '502']
; nb:x:opls_x: []
; cl:x:opls_x: []
; ha:HA:opls_146: []
; h4:HA:opls_146: []

[ moleculetype ]
;name            nrexcl
 mobley_2789243   3

[ atoms ]
;   nr  type  resi  res  atom  cgnr     charge      mass       ; qtot   bond_type
     1 opls_145     1   MOL    C1    1    -0.237300     12.01100 ; qtot -0.237  CA  
     2 opls_145     1   MOL    C2    2    -0.088000     12.01100 ; qtot -0.325  CA  
     3 opls_145     1   MOL    C3    3     0.393200     12.01100 ; qtot  0.068  CA  
     4 opls_145     1   MOL    C4    4     0.403200     12.01100 ; qtot  0.471  CA  
     5 opls_145     1   MOL    C5    5    -0.106900     12.01100 ; qtot  0.364  CA  
     6 opls_x     1   MOL    N1    6    -0.654000      0.00000 ; qtot -0.290  x   
     7 opls_x     1   MOL   CL1    7    -0.074400      0.00000 ; qtot -0.364  x   
     8 opls_146     1   MOL    H1    8     0.149000      1.00800 ; qtot -0.215  HA  
     9 opls_146     1   MOL    H2    9     0.152000      1.00800 ; qtot -0.063  HA  
    10 opls_146     1   MOL    H3   10     0.027100      1.00800 ; qtot -0.036  HA  
    11 opls_146     1   MOL    H4   11     0.036100      1.00800 ; qtot -0.000  HA  

[ bonds ]
;   ai     aj funct   r             k
     1      2   1 ;    1.3986e-01    2.9644e+05 ;     C1 - C2         CA - CA    
     1      3   1 ;    1.3986e-01    2.9644e+05 ;     C1 - C3         CA - CA    
     1      8   1 ;    1.0860e-01    3.0183e+05 ;     C1 - H1         CA - HA    
     2      5   1 ;    1.3986e-01    2.9644e+05 ;     C2 - C5         CA - CA    
     2      9   1 ;    1.0860e-01    3.0183e+05 ;     C2 - H2         CA - HA    
     3      6   1 ;    1.3392e-01    3.2341e+05 ;     C3 - N1         CA - x     
     3     10   1 ;    1.0885e-01    2.9859e+05 ;     C3 - H3         CA - HA    
     4      5   1 ;    1.3986e-01    2.9644e+05 ;     C4 - C5         CA - CA    
     4      6   1 ;    1.3392e-01    3.2341e+05 ;     C4 - N1         CA - x     
     4     11   1 ;    1.0885e-01    2.9859e+05 ;     C4 - H4         CA - HA    
     5      7   1 ;    1.7572e-01    1.5730e+05 ;     C5 - CL1        CA - x     

[ pairs ]
;   ai     aj    funct
     1      4      1 ;     C1 - C4    
     1      7      1 ;     C1 - CL1   
     2      6      1 ;     C2 - N1    
     2     10      1 ;     C2 - H3    
     2     11      1 ;     C2 - H4    
     3      5      1 ;     C3 - C5    
     3      9      1 ;     C3 - H2    
     3     11      1 ;     C3 - H4    
     4      9      1 ;     C4 - H2    
     4     10      1 ;     C4 - H3    
     6      7      1 ;     N1 - CL1   
     7      9      1 ;    CL1 - H2    
     7     11      1 ;    CL1 - H4    
     8      5      1 ;     H1 - C5    
     8      6      1 ;     H1 - N1    
     8      9      1 ;     H1 - H2    
     8     10      1 ;     H1 - H3    

[ angles ]
;   ai     aj     ak    funct   theta         cth
     1      2      5      1 ;    1.2002e+02    5.3279e+02 ;     C1 - C2   - C5       CA -   CA - CA  
     1      2      9      1 ;    1.1988e+02    3.7572e+02 ;     C1 - C2   - H2       CA -   CA - HA  
     1      3      6      1 ;    1.2294e+02    5.7045e+02 ;     C1 - C3   - N1       CA -   CA - x   
     1      3     10      1 ;    1.2032e+02    3.7489e+02 ;     C1 - C3   - H3       CA -   CA - HA  
     2      1      3      1 ;    1.2002e+02    5.3279e+02 ;     C2 - C1   - C3       CA -   CA - CA  
     2      1      8      1 ;    1.1988e+02    3.7572e+02 ;     C2 - C1   - H1       CA -   CA - HA  
     2      5      4      1 ;    1.2002e+02    5.3279e+02 ;     C2 - C5   - C4       CA -   CA - CA  
     2      5      7      1 ;    1.1938e+02    5.3605e+02 ;     C2 - C5   - CL1      CA -   CA - x   
     3      1      8      1 ;    1.1988e+02    3.7572e+02 ;     C3 - C1   - H1       CA -   CA - HA  
     3      6      4      1 ;    1.1724e+02    6.9580e+02 ;     C3 - N1   - C4       CA -    x - CA  
     4      5      7      1 ;    1.1938e+02    5.3605e+02 ;     C4 - C5   - CL1      CA -   CA - x   
     5      2      9      1 ;    1.1988e+02    3.7572e+02 ;     C5 - C2   - H2       CA -   CA - HA  
     5      4      6      1 ;    1.2294e+02    5.7045e+02 ;     C5 - C4   - N1       CA -   CA - x   
     5      4     11      1 ;    1.2032e+02    3.7489e+02 ;     C5 - C4   - H4       CA -   CA - HA  
     6      3     10      1 ;    1.1602e+02    4.1924e+02 ;     N1 - C3   - H3        x -   CA - HA  
     6      4     11      1 ;    1.1602e+02    4.1924e+02 ;     N1 - C4   - H4        x -   CA - HA  

[ dihedrals ] ; propers
; for gromacs 4.5 or higher, using funct 9
;    i      j      k      l   func   phase     kd      pn
     1      2      5      4      9 ;   180.00  15.16700   2 ;     C1-    C2-    C5-    C4
     1      2      5      7      9 ;   180.00  15.16700   2 ;     C1-    C2-    C5-   CL1
     1      3      6      4      9 ;   180.00  20.08320   2 ;     C1-    C3-    N1-    C4
     2      1      3      6      9 ;   180.00  15.16700   2 ;     C2-    C1-    C3-    N1
     2      1      3     10      9 ;   180.00  15.16700   2 ;     C2-    C1-    C3-    H3
     2      5      4      6      9 ;   180.00  15.16700   2 ;     C2-    C5-    C4-    N1
     2      5      4     11      9 ;   180.00  15.16700   2 ;     C2-    C5-    C4-    H4
     3      1      2      5      9 ;   180.00  15.16700   2 ;     C3-    C1-    C2-    C5
     3      1      2      9      9 ;   180.00  15.16700   2 ;     C3-    C1-    C2-    H2
     3      6      4      5      9 ;   180.00  20.08320   2 ;     C3-    N1-    C4-    C5
     3      6      4     11      9 ;   180.00  20.08320   2 ;     C3-    N1-    C4-    H4
     4      5      2      9      9 ;   180.00  15.16700   2 ;     C4-    C5-    C2-    H2
     4      6      3     10      9 ;   180.00  20.08320   2 ;     C4-    N1-    C3-    H3
     6      4      5      7      9 ;   180.00  15.16700   2 ;     N1-    C4-    C5-   CL1
     7      5      2      9      9 ;   180.00  15.16700   2 ;    CL1-    C5-    C2-    H2
     7      5      4     11      9 ;   180.00  15.16700   2 ;    CL1-    C5-    C4-    H4
     8      1      2      5      9 ;   180.00  15.16700   2 ;     H1-    C1-    C2-    C5
     8      1      2      9      9 ;   180.00  15.16700   2 ;     H1-    C1-    C2-    H2
     8      1      3      6      9 ;   180.00  15.16700   2 ;     H1-    C1-    C3-    N1
     8      1      3     10      9 ;   180.00  15.16700   2 ;     H1-    C1-    C3-    H3

[ dihedrals ] ; impropers
; treated as propers in GROMACS to use correct AMBER analytical function
;    i      j      k      l   func   phase     kd      pn
     1      5      2      9      4 ;   180.00   4.60240   2 ;     C1-    C5-    C2-    H2
     1     10      3      6      4 ;   180.00   4.60240   2 ;     C1-    H3-    C3-    N1
     2      4      5      7      4 ;   180.00   4.60240   2 ;     C2-    C4-    C5-   CL1
     5     11      4      6      4 ;   180.00   4.60240   2 ;     C5-    H4-    C4-    N1
     8      1      3      2      4 ;   180.00   4.60240   2 ;     H1-    C1-    C3-    C2
