3_chloropyridine
    11
   0.2060000  -0.4420000   0.9680000   1.3350000  -0.0800000   1.6950000
  -0.6460000  -1.3850000   1.5200000   0.6600000  -1.5970000   3.3980000
   1.5730000  -0.6640000   2.9340000  -0.4480000  -1.9740000   2.7210000
   2.9540000  -0.2430000   3.8590000  -0.0000000  -0.0000000  -0.0000000
   2.0190000   0.6570000   1.2840000  -1.5410000  -1.7010000   0.9930000
   0.7890000  -2.0880000   4.3580000
