butyraldehyde
    13
   2.7210000   1.9250000  -2.5420000  -0.0380000  -0.3340000  -1.0420000
   2.0590000   0.9330000  -1.6170000   0.5950000   0.6930000  -1.9660000
   2.1550000   2.5140000  -3.4580000   3.7920000   2.1030000  -2.3430000
   0.0000000   0.0000000  -0.0000000  -1.0870000  -0.4910000  -1.3100000
   0.4790000  -1.2970000  -1.1130000   2.1500000   1.3220000  -0.5970000
   2.6250000  -0.0030000  -1.6780000   0.0350000   1.6330000  -1.9000000
   0.5090000   0.3470000  -3.0040000
