; mobley_8573194_GMX_OPLS.itp created by acpype (v: 2023.10.27) on Wed May 20 23:56:04 2026

; For OPLS atomtypes manual fine tuning
; AC_at:OPLS_at:OPLScode: Possible_Alternatives (see ffoplsaa.atp and ffoplsaanb.itp)
; c:C:opls_235: ['271']
; c3:CT:opls_135: ['136', '137', '149', '157', '158', '206', '209', '210', '223B', '224B', '245', '246', '274', '283', '284', '285', '292', '292B', '293B', '296', '307', '308', '505']
; o:O:opls_236: ['272']
; h4:HA:opls_146: []
; hc:HC:opls_140: []

[ moleculetype ]
;name            nrexcl
 mobley_8573194   3

[ atoms ]
;   nr  type  resi  res  atom  cgnr     charge      mass       ; qtot   bond_type
     1 opls_235     1   MOL    C1    1     0.562901     12.01100 ; qtot  0.563  C   
     2 opls_135     1   MOL    C2    2    -0.094100     12.01100 ; qtot  0.469  CT  
     3 opls_135     1   MOL    C3    3    -0.199400     12.01100 ; qtot  0.269  CT  
     4 opls_135     1   MOL    C4    4    -0.076400     12.01100 ; qtot  0.193  CT  
     5 opls_236     1   MOL    O1    5    -0.525100     15.99940 ; qtot -0.332  O   
     6 opls_146     1   MOL    H1    6    -0.010800      1.00800 ; qtot -0.343  HA  
     7 opls_140     1   MOL    H2    7     0.034033      1.00800 ; qtot -0.309  HC  
     8 opls_140     1   MOL    H3    8     0.034033      1.00800 ; qtot -0.275  HC  
     9 opls_140     1   MOL    H4    9     0.034033      1.00800 ; qtot -0.241  HC  
    10 opls_140     1   MOL    H5   10     0.066700      1.00800 ; qtot -0.174  HC  
    11 opls_140     1   MOL    H6   11     0.066700      1.00800 ; qtot -0.107  HC  
    12 opls_140     1   MOL    H7   12     0.053700      1.00800 ; qtot -0.054  HC  
    13 opls_140     1   MOL    H8   13     0.053700      1.00800 ; qtot -0.000  HC  

[ bonds ]
;   ai     aj funct   r             k
     1      3   1 ;    1.5270e-01    1.9652e+05 ;     C1 - C3          C - CT    
     1      5   1 ;    1.2190e-01    4.9421e+05 ;     C1 - O1          C - O     
     1      6   1 ;    1.1123e-01    2.6984e+05 ;     C1 - H1          C - HA    
     2      4   1 ;    1.5354e-01    1.9154e+05 ;     C2 - C4         CT - CT    
     2      7   1 ;    1.0962e-01    2.8891e+05 ;     C2 - H2         CT - HC    
     2      8   1 ;    1.0962e-01    2.8891e+05 ;     C2 - H3         CT - HC    
     2      9   1 ;    1.0962e-01    2.8891e+05 ;     C2 - H4         CT - HC    
     3      4   1 ;    1.5354e-01    1.9154e+05 ;     C3 - C4         CT - CT    
     3     10   1 ;    1.0962e-01    2.8891e+05 ;     C3 - H5         CT - HC    
     3     11   1 ;    1.0962e-01    2.8891e+05 ;     C3 - H6         CT - HC    
     4     12   1 ;    1.0962e-01    2.8891e+05 ;     C4 - H7         CT - HC    
     4     13   1 ;    1.0962e-01    2.8891e+05 ;     C4 - H8         CT - HC    

[ pairs ]
;   ai     aj    funct
     1      2      1 ;     C1 - C2    
     1     12      1 ;     C1 - H7    
     1     13      1 ;     C1 - H8    
     2     10      1 ;     C2 - H5    
     2     11      1 ;     C2 - H6    
     3      7      1 ;     C3 - H2    
     3      8      1 ;     C3 - H3    
     3      9      1 ;     C3 - H4    
     5      4      1 ;     O1 - C4    
     5     10      1 ;     O1 - H5    
     5     11      1 ;     O1 - H6    
     6      4      1 ;     H1 - C4    
     6     10      1 ;     H1 - H5    
     6     11      1 ;     H1 - H6    
     7     12      1 ;     H2 - H7    
     7     13      1 ;     H2 - H8    
     8     12      1 ;     H3 - H7    
     8     13      1 ;     H3 - H8    
     9     12      1 ;     H4 - H7    
     9     13      1 ;     H4 - H8    
    10     12      1 ;     H5 - H7    
    10     13      1 ;     H5 - H8    
    11     12      1 ;     H6 - H7    
    11     13      1 ;     H6 - H8    

[ angles ]
;   ai     aj     ak    funct   theta         cth
     1      3      4      1 ;    1.1143e+02    5.0509e+02 ;     C1 - C3   - C4        C -   CT - CT  
     1      3     10      1 ;    1.0895e+02    3.6510e+02 ;     C1 - C3   - H5        C -   CT - HC  
     1      3     11      1 ;    1.0895e+02    3.6510e+02 ;     C1 - C3   - H6        C -   CT - HC  
     2      4      3      1 ;    1.1263e+02    5.0099e+02 ;     C2 - C4   - C3       CT -   CT - CT  
     2      4     12      1 ;    1.0968e+02    3.6208e+02 ;     C2 - C4   - H7       CT -   CT - HC  
     2      4     13      1 ;    1.0968e+02    3.6208e+02 ;     C2 - C4   - H8       CT -   CT - HC  
     3      1      5      1 ;    1.2290e+02    6.3973e+02 ;     C3 - C1   - O1       CT -    C - O   
     3      1      6      1 ;    1.1471e+02    3.5522e+02 ;     C3 - C1   - H1       CT -    C - HA  
     3      4     12      1 ;    1.0968e+02    3.6208e+02 ;     C3 - C4   - H7       CT -   CT - HC  
     3      4     13      1 ;    1.0968e+02    3.6208e+02 ;     C3 - C4   - H8       CT -   CT - HC  
     4      2      7      1 ;    1.0968e+02    3.6208e+02 ;     C4 - C2   - H2       CT -   CT - HC  
     4      2      8      1 ;    1.0968e+02    3.6208e+02 ;     C4 - C2   - H3       CT -   CT - HC  
     4      2      9      1 ;    1.0968e+02    3.6208e+02 ;     C4 - C2   - H4       CT -   CT - HC  
     4      3     10      1 ;    1.0968e+02    3.6208e+02 ;     C4 - C3   - H5       CT -   CT - HC  
     4      3     11      1 ;    1.0968e+02    3.6208e+02 ;     C4 - C3   - H6       CT -   CT - HC  
     5      1      6      1 ;    1.2062e+02    5.0191e+02 ;     O1 - C1   - H1        O -    C - HA  
     7      2      8      1 ;    1.0773e+02    2.9957e+02 ;     H2 - C2   - H3       HC -   CT - HC  
     7      2      9      1 ;    1.0773e+02    2.9957e+02 ;     H2 - C2   - H4       HC -   CT - HC  
     8      2      9      1 ;    1.0773e+02    2.9957e+02 ;     H3 - C2   - H4       HC -   CT - HC  
    10      3     11      1 ;    1.0773e+02    2.9957e+02 ;     H5 - C3   - H6       HC -   CT - HC  
    12      4     13      1 ;    1.0773e+02    2.9957e+02 ;     H7 - C4   - H8       HC -   CT - HC  

[ dihedrals ] ; propers
; for gromacs 4.5 or higher, using funct 9
;    i      j      k      l   func   phase     kd      pn
     1      3      4      2      9 ;     0.00   0.00000   0 ;     C1-    C3-    C4-    C2
     1      3      4      2      9 ;     0.00   0.16736   2 ;     C1-    C3-    C4-    C2
     1      3      4      2      9 ;   180.00   1.92464   1 ;     C1-    C3-    C4-    C2
     1      3      4     12      9 ;     0.00   0.65084   3 ;     C1-    C3-    C4-    H7
     1      3      4     13      9 ;     0.00   0.65084   3 ;     C1-    C3-    C4-    H8
     2      4      3     10      9 ;     0.00   0.54392   3 ;     C2-    C4-    C3-    H5
     2      4      3     11      9 ;     0.00   0.54392   3 ;     C2-    C4-    C3-    H6
     3      4      2      7      9 ;     0.00   0.54392   3 ;     C3-    C4-    C2-    H2
     3      4      2      8      9 ;     0.00   0.54392   3 ;     C3-    C4-    C2-    H3
     3      4      2      9      9 ;     0.00   0.54392   3 ;     C3-    C4-    C2-    H4
     5      1      3      4      9 ;     0.00   2.84512   1 ;     O1-    C1-    C3-    C4
     5      1      3      4      9 ;   180.00   0.83680   2 ;     O1-    C1-    C3-    C4
     5      1      3      4      9 ;   180.00   1.84096   3 ;     O1-    C1-    C3-    C4
     5      1      3     10      9 ;     0.00  16.86152   1 ;     O1-    C1-    C3-    H5
     5      1      3     10      9 ;   180.00  15.31344   2 ;     O1-    C1-    C3-    H5
     5      1      3     11      9 ;     0.00  16.86152   1 ;     O1-    C1-    C3-    H6
     5      1      3     11      9 ;   180.00  15.31344   2 ;     O1-    C1-    C3-    H6
     6      1      3      4      9 ;   180.00   0.00000   2 ;     H1-    C1-    C3-    C4
     6      1      3     10      9 ;   180.00   0.00000   2 ;     H1-    C1-    C3-    H5
     6      1      3     11      9 ;   180.00   0.00000   2 ;     H1-    C1-    C3-    H6
     7      2      4     12      9 ;     0.00   0.50208   3 ;     H2-    C2-    C4-    H7
     7      2      4     13      9 ;     0.00   0.50208   3 ;     H2-    C2-    C4-    H8
     8      2      4     12      9 ;     0.00   0.50208   3 ;     H3-    C2-    C4-    H7
     8      2      4     13      9 ;     0.00   0.50208   3 ;     H3-    C2-    C4-    H8
     9      2      4     12      9 ;     0.00   0.50208   3 ;     H4-    C2-    C4-    H7
     9      2      4     13      9 ;     0.00   0.50208   3 ;     H4-    C2-    C4-    H8
    10      3      4     12      9 ;     0.00   0.50208   3 ;     H5-    C3-    C4-    H7
    10      3      4     13      9 ;     0.00   0.50208   3 ;     H5-    C3-    C4-    H8
    11      3      4     12      9 ;     0.00   0.50208   3 ;     H6-    C3-    C4-    H7
    11      3      4     13      9 ;     0.00   0.50208   3 ;     H6-    C3-    C4-    H8

[ dihedrals ] ; impropers
; treated as propers in GROMACS to use correct AMBER analytical function
;    i      j      k      l   func   phase     kd      pn
     5      1      6      3      4 ;   180.00   4.60240   2 ;     O1-    C1-    H1-    C3
