; mobley_8573194_GMX_OPLS.top created by acpype (v: 2023.10.27) on Wed May 20 23:56:04 2026

; Include forcefield parameters
#include "ffoplsaa.itp"

; Include mobley_8573194_GMX.itp topology
#include "mobley_8573194_GMX.itp"

; Ligand position restraints
#ifdef POSRES_LIG
#include "posre_mobley_8573194.itp"
#endif

[ system ]
 mobley_8573194

[ molecules ]
; Compound        nmols
 mobley_8573194   1     
