mobley_5561855_GMX.gro created by acpype (v: 2023.10.27) on Wed May 20 23:51:27 2026
   22
    1MOL     C1    1   2.504   2.497   2.138
    1MOL     C2    2   2.396   2.555   2.205
    1MOL     C3    3   2.607   2.438   2.210
    1MOL     C4    4   2.426   2.382   2.768
    1MOL     C5    5   2.542   2.594   2.775
    1MOL     C6    6   2.495   2.493   2.417
    1MOL     C7    7   2.490   2.491   2.562
    1MOL     C8    8   2.391   2.553   2.345
    1MOL     C9    9   2.603   2.436   2.349
    1MOL    C10   10   2.482   2.487   2.841
    1MOL    C11   11   2.430   2.384   2.628
    1MOL    C12   12   2.547   2.596   2.635
    1MOL    CL1   13   2.255   2.626   2.422
    1MOL    CL2   14   2.735   2.361   2.433
    1MOL    CL3   15   2.476   2.484   3.013
    1MOL    CL4   16   2.359   2.251   2.543
    1MOL    CL5   17   2.623   2.731   2.559
    1MOL     H1   18   2.507   2.499   2.029
    1MOL     H2   19   2.316   2.601   2.147
    1MOL     H3   20   2.690   2.394   2.156
    1MOL     H4   21   2.379   2.299   2.820
    1MOL     H5   22   2.586   2.675   2.832
   4.98460   4.98460   4.98460
