mobley_5561855_GMX.gro created by acpype (v: 2023.10.27) on Wed May 20 23:51:27 2026
12088
    1MOL     C1    1   2.504   2.497   2.138
    1MOL     C2    2   2.396   2.555   2.205
    1MOL     C3    3   2.607   2.438   2.210
    1MOL     C4    4   2.426   2.382   2.768
    1MOL     C5    5   2.542   2.594   2.775
    1MOL     C6    6   2.495   2.493   2.417
    1MOL     C7    7   2.490   2.491   2.562
    1MOL     C8    8   2.391   2.553   2.345
    1MOL     C9    9   2.603   2.436   2.349
    1MOL    C10   10   2.482   2.487   2.841
    1MOL    C11   11   2.430   2.384   2.628
    1MOL    C12   12   2.547   2.596   2.635
    1MOL    CL1   13   2.255   2.626   2.422
    1MOL    CL2   14   2.735   2.361   2.433
    1MOL    CL3   15   2.476   2.484   3.013
    1MOL    CL4   16   2.359   2.251   2.543
    1MOL    CL5   17   2.623   2.731   2.559
    1MOL     H1   18   2.507   2.499   2.029
    1MOL     H2   19   2.316   2.601   2.147
    1MOL     H3   20   2.690   2.394   2.156
    1MOL     H4   21   2.379   2.299   2.820
    1MOL     H5   22   2.586   2.675   2.832
    2SOL     OW   23   0.230   0.628   0.113
    2SOL    HW1   24   0.137   0.626   0.150
    2SOL    HW2   25   0.231   0.589   0.021
    3SOL     OW   26   0.225   0.275   0.996
    3SOL    HW1   27   0.260   0.258   1.088
    3SOL    HW2   28   0.137   0.230   0.984
    4SOL     OW   29   0.019   0.368   0.647
    4SOL    HW1   30  -0.063   0.411   0.686
    4SOL    HW2   31  -0.009   0.295   0.584
    5SOL     OW   32   0.569   1.275   1.165
    5SOL    HW1   33   0.476   1.268   1.128
    5SOL    HW2   34   0.580   1.364   1.209
    6SOL     OW   35   1.555   1.511   0.703
    6SOL    HW1   36   1.498   1.495   0.784
    6SOL    HW2   37   1.496   1.521   0.623
    7SOL     OW   38   1.135   0.703   0.717
    7SOL    HW1   39   1.192   0.781   0.692
    7SOL    HW2   40   1.075   0.729   0.793
    8SOL     OW   41   1.755   0.607   0.231
    8SOL    HW1   42   1.743   0.594   0.132
    8SOL    HW2   43   1.725   0.526   0.280
    9SOL     OW   44   0.768   1.144   1.023
    9SOL    HW1   45   0.690   1.161   1.083
    9SOL    HW2   46   0.802   1.231   0.987
   10SOL     OW   47   0.850   0.798   1.823
   10SOL    HW1   48   0.846   0.874   1.888
   10SOL    HW2   49   0.872   0.834   1.732
   11SOL     OW   50   0.685   1.012   0.665
   11SOL    HW1   51   0.754   0.996   0.735
   11SOL    HW2   52   0.612   1.069   0.703
   12SOL     OW   53   0.686   1.161   1.803
   12SOL    HW1   54   0.746   1.240   1.817
   12SOL    HW2   55   0.600   1.192   1.762
   13SOL     OW   56   0.335   1.435   1.061
   13SOL    HW1   57   0.257   1.404   1.008
   13SOL    HW2   58   0.393   1.493   1.004
   14SOL     OW   59   1.460   1.505   1.339
   14SOL    HW1   60   1.484   1.599   1.365
   14SOL    HW2   61   1.444   1.451   1.421
   15SOL     OW   62   0.438   0.392   1.499
   15SOL    HW1   63   0.520   0.336   1.508
   15SOL    HW2   64   0.357   0.334   1.503
   16SOL     OW   65   1.603   0.447   0.737
   16SOL    HW1   66   1.529   0.493   0.687
   16SOL    HW2   67   1.654   0.515   0.790
   17SOL     OW   68   0.231   1.713   0.483
   17SOL    HW1   69   0.265   1.790   0.537
   17SOL    HW2   70   0.275   1.713   0.393
   18SOL     OW   71   1.127   1.341   1.690
   18SOL    HW1   72   1.174   1.341   1.778
   18SOL    HW2   73   1.079   1.254   1.679
   19SOL     OW   74   0.230   1.434   0.538
   19SOL    HW1   75   0.204   1.530   0.538
   19SOL    HW2   76   0.159   1.380   0.583
   20SOL     OW   77   0.240   1.091   0.886
   20SOL    HW1   78   0.254   1.007   0.938
   20SOL    HW2   79   0.185   1.155   0.941
   21SOL     OW   80   0.620   1.786   1.439
   21SOL    HW1   81   0.528   1.769   1.474
   21SOL    HW2   82   0.648   1.878   1.465
   22SOL     OW   83   0.606   0.964   0.123
   22SOL    HW1   84   0.613   1.048   0.069
   22SOL    HW2   85   0.652   0.977   0.211
   23SOL     OW   86   1.594   0.114   1.480
   23SOL    HW1   87   1.576   0.181   1.408
   23SOL    HW2   88   1.591   0.160   1.569
   24SOL     OW   89   0.122   0.643   0.563
   24SOL    HW1   90   0.077   0.555   0.580
   24SOL    HW2   91   0.121   0.697   0.647
   25SOL     OW   92   1.842   1.767   0.359
   25SOL    HW1   93   1.896   1.738   0.439
   25SOL    HW2   94   1.872   1.857   0.330
   26SOL     OW   95   0.027   1.596   0.117
   26SOL    HW1   96   0.008   1.500   0.138
   26SOL    HW2   97  -0.006   1.654   0.192
   27SOL     OW   98   1.689   0.922   0.612
   27SOL    HW1   99   1.784   0.893   0.620
   27SOL    HW2  100   1.681   0.987   0.537
   28SOL     OW  101   1.641   1.108   0.432
   28SOL    HW1  102   1.727   1.110   0.380
   28SOL    HW2  103   1.655   1.155   0.520
   29SOL     OW  104   0.113   0.737   1.597
   29SOL    HW1  105   0.201   0.724   1.642
   29SOL    HW2  106   0.100   0.834   1.575
   30SOL     OW  107   0.613   1.365   0.726
   30SOL    HW1  108   0.564   1.278   0.735
   30SOL    HW2  109   0.590   1.408   0.639
   31SOL     OW  110   1.293   1.228   1.423
   31SOL    HW1  111   1.330   1.155   1.365
   31SOL    HW2  112   1.345   1.233   1.508
   32SOL     OW  113   0.809   0.004   0.502
   32SOL    HW1  114   0.849   0.095   0.493
   32SOL    HW2  115   0.709   0.012   0.508
   33SOL     OW  116   0.197   0.976   1.264
   33SOL    HW1  117   0.286   0.931   1.250
   33SOL    HW2  118   0.124   0.911   1.245
   34SOL     OW  119   1.525   0.999   0.190
   34SOL    HW1  120   1.462   0.923   0.203
   34SOL    HW2  121   1.573   1.017   0.276
   35SOL     OW  122   1.187   1.792   1.616
   35SOL    HW1  123   1.211   1.852   1.540
   35SOL    HW2  124   1.194   1.697   1.586
   36SOL     OW  125   0.317   0.251   1.801
   36SOL    HW1  126   0.388   0.322   1.807
   36SOL    HW2  127   0.229   0.290   1.829
   37SOL     OW  128   1.466   1.417   0.953
   37SOL    HW1  129   1.407   1.423   1.033
   37SOL    HW2  130   1.451   1.329   0.907
   38SOL     OW  131   1.667   1.714   0.572
   38SOL    HW1  132   1.626   1.691   0.484
   38SOL    HW2  133   1.649   1.640   0.637
   39SOL     OW  134   0.598   0.729   0.270
   39SOL    HW1  135   0.622   0.798   0.202
   39SOL    HW2  136   0.520   0.762   0.324
   40SOL     OW  137   1.281   0.345   0.944
   40SOL    HW1  138   1.195   0.295   0.931
   40SOL    HW2  139   1.343   0.291   1.000
   41SOL     OW  140   1.576   1.662   0.307
   41SOL    HW1  141   1.665   1.708   0.310
   41SOL    HW2  142   1.555   1.638   0.212
   42SOL     OW  143   0.807   0.605   1.465
   42SOL    HW1  144   0.760   0.602   1.554
   42SOL    HW2  145   0.756   0.550   1.399
   43SOL     OW  146   1.394   0.469   1.674
   43SOL    HW1  147   1.374   0.512   1.762
   43SOL    HW2  148   1.472   0.407   1.683
   44SOL     OW  149   0.973   0.890   1.572
   44SOL    HW1  150   1.019   0.806   1.543
   44SOL    HW2  151   0.917   0.924   1.497
   45SOL     OW  152   0.991   0.410   1.242
   45SOL    HW1  153   0.914   0.444   1.296
   45SOL    HW2  154   0.957   0.359   1.163
   46SOL     OW  155   1.041   0.701   0.429
   46SOL    HW1  156   1.067   0.697   0.525
   46SOL    HW2  157   0.956   0.650   0.415
   47SOL     OW  158   0.076   0.811   0.789
   47SOL    HW1  159   0.175   0.799   0.798
   47SOL    HW2  160   0.052   0.906   0.810
   48SOL     OW  161   0.130   1.821   1.571
   48SOL    HW1  162   0.120   1.806   1.670
   48SOL    HW2  163   0.044   1.857   1.535
   49SOL     OW  164   0.865   0.348   0.195
   49SOL    HW1  165   0.924   0.411   0.146
   49SOL    HW2  166   0.884   0.254   0.166
   50SOL     OW  167   1.719   0.585   1.831
   50SOL    HW1  168   1.693   0.674   1.795
   50SOL    HW2  169   1.717   0.517   1.758
   51SOL     OW  170   1.362   1.144   0.545
   51SOL    HW1  171   1.445   1.115   0.497
   51SOL    HW2  172   1.313   1.211   0.489
   52SOL     OW  173   0.550   0.196   0.885
   52SOL    HW1  174   0.545   0.191   0.985
   52SOL    HW2  175   0.552   0.292   0.856
   53SOL     OW  176   1.008   1.456   0.477
   53SOL    HW1  177   0.962   1.528   0.425
   53SOL    HW2  178   1.004   1.476   0.575
   54SOL     OW  179   0.351   1.801   0.853
   54SOL    HW1  180   0.401   1.715   0.859
   54SOL    HW2  181   0.416   1.878   0.850
   55SOL     OW  182   1.795   1.066   0.873
   55SOL    HW1  183   1.733   1.051   0.797
   55SOL    HW2  184   1.743   1.077   0.958
   56SOL     OW  185   1.227   1.550   1.506
   56SOL    HW1  186   1.233   1.473   1.570
   56SOL    HW2  187   1.175   1.524   1.426
   57SOL     OW  188   0.321   0.943   0.242
   57SOL    HW1  189   0.403   0.982   0.200
   57SOL    HW2  190   0.294   0.861   0.193
   58SOL     OW  191   1.458   0.735   0.728
   58SOL    HW1  192   1.453   0.670   0.803
   58SOL    HW2  193   1.538   0.794   0.741
   59SOL     OW  194   0.461   1.266   1.727
   59SOL    HW1  195   0.411   1.267   1.641
   59SOL    HW2  196   0.398   1.248   1.803
   60SOL     OW  197   1.111   1.776   0.237
   60SOL    HW1  198   1.051   1.714   0.287
   60SOL    HW2  199   1.142   1.732   0.152
   61SOL     OW  200   0.202   0.285   1.498
   61SOL    HW1  201   0.122   0.345   1.485
   61SOL    HW2  202   0.192   0.236   1.584
   62SOL     OW  203   1.632   1.377   0.081
   62SOL    HW1  204   1.600   1.471   0.071
   62SOL    HW2  205   1.556   1.314   0.069
   63SOL     OW  206   0.464   1.743   0.323
   63SOL    HW1  207   0.497   1.782   0.409
   63SOL    HW2  208   0.540   1.736   0.258
   64SOL     OW  209   1.400   0.107   0.426
   64SOL    HW1  210   1.376   0.070   0.336
   64SOL    HW2  211   1.499   0.123   0.430
   65SOL     OW  212   0.249   1.785   1.241
   65SOL    HW1  213   0.306   1.720   1.291
   65SOL    HW2  214   0.233   1.752   1.148
   66SOL     OW  215   0.940   1.698   0.904
   66SOL    HW1  216   1.020   1.641   0.925
   66SOL    HW2  217   0.891   1.658   0.827
   67SOL     OW  218   0.382   0.700   0.480
   67SOL    HW1  219   0.427   0.610   0.477
   67SOL    HW2  220   0.288   0.689   0.513
   68SOL     OW  221   1.547   0.222   1.729
   68SOL    HW1  222   1.542   0.259   1.821
   68SOL    HW2  223   1.475   0.153   1.717
   69SOL     OW  224   0.614   0.122   0.117
   69SOL    HW1  225   0.712   0.100   0.124
   69SOL    HW2  226   0.583   0.105   0.024
   70SOL     OW  227   0.781   0.264   1.749
   70SOL    HW1  228   0.848   0.203   1.792
   70SOL    HW2  229   0.708   0.283   1.814
   71SOL     OW  230   0.888   1.514   1.195
   71SOL    HW1  231   0.865   1.489   1.101
   71SOL    HW2  232   0.949   1.445   1.234
   72SOL     OW  233   1.351   0.590   1.433
   72SOL    HW1  234   1.379   0.547   1.518
   72SOL    HW2  235   1.376   0.686   1.434
   73SOL     OW  236   0.803   1.402   0.924
   73SOL    HW1  237   0.893   1.416   0.882
   73SOL    HW2  238   0.732   1.404   0.853
   74SOL     OW  239   0.922   0.503   0.899
   74SOL    HW1  240   0.897   0.494   0.803
   74SOL    HW2  241   0.970   0.421   0.930
   75SOL     OW  242   0.539   0.064   0.512
   75SOL    HW1  243   0.458   0.065   0.570
   75SOL    HW2  244   0.542   0.147   0.457
   76SOL     OW  245   1.434   1.188   0.041
   76SOL    HW1  246   1.466   1.112   0.098
   76SOL    HW2  247   1.342   1.215   0.071
   77SOL     OW  248   0.297   0.035   0.171
   77SOL    HW1  249   0.346   0.119   0.150
   77SOL    HW2  250   0.359  -0.030   0.216
   78SOL     OW  251   0.935   0.236   0.480
   78SOL    HW1  252   0.887   0.277   0.402
   78SOL    HW2  253   1.034   0.234   0.461
   79SOL     OW  254   1.076   0.683   1.464
   79SOL    HW1  255   0.996   0.622   1.467
   79SOL    HW2  256   1.157   0.630   1.440
   80SOL     OW  257   1.227   1.570   0.793
   80SOL    HW1  258   1.248   1.644   0.728
   80SOL    HW2  259   1.295   1.570   0.866
   81SOL     OW  260   0.459   1.152   0.741
   81SOL    HW1  261   0.388   1.125   0.806
   81SOL    HW2  262   0.433   1.124   0.648
   82SOL     OW  263   1.271   1.797   0.591
   82SOL    HW1  264   1.315   1.861   0.527
   82SOL    HW2  265   1.221   1.849   0.661
   83SOL     OW  266   1.032   0.549   0.016
   83SOL    HW1  267   0.991   0.631  -0.023
   83SOL    HW2  268   1.096   0.575   0.089
   84SOL     OW  269   0.078   0.556   1.386
   84SOL    HW1  270   0.170   0.555   1.345
   84SOL    HW2  271   0.072   0.630   1.453
   85SOL     OW  272   0.561   0.222   1.147
   85SOL    HW1  273   0.599   0.138   1.184
   85SOL    HW2  274   0.473   0.241   1.191
   86SOL     OW  275   0.866   0.454   0.642
   86SOL    HW1  276   0.834   0.526   0.580
   86SOL    HW2  277   0.890   0.373   0.589
   87SOL     OW  278   1.017   0.039   0.753
   87SOL    HW1  279   0.945   0.044   0.684
   87SOL    HW2  280   0.993  -0.030   0.822
   88SOL     OW  281   1.429   1.173   0.867
   88SOL    HW1  282   1.374   1.089   0.860
   88SOL    HW2  283   1.455   1.202   0.775
   89SOL     OW  284   1.466   0.590   0.992
   89SOL    HW1  285   1.436   0.495   0.999
   89SOL    HW2  286   1.539   0.606   1.058
   90SOL     OW  287   1.857   0.833   0.377
   90SOL    HW1  288   1.899   0.769   0.441
   90SOL    HW2  289   1.819   0.782   0.299
   91SOL     OW  290   0.488   1.385   0.174
   91SOL    HW1  291   0.401   1.370   0.221
   91SOL    HW2  292   0.471   1.411   0.079
   92SOL     OW  293   1.664   1.280   0.657
   92SOL    HW1  294   1.763   1.288   0.671
   92SOL    HW2  295   1.619   1.364   0.688
   93SOL     OW  296   1.390   0.575   0.078
   93SOL    HW1  297   1.336   0.554   0.159
   93SOL    HW2  298   1.481   0.534   0.087
   94SOL     OW  299   0.527   0.256   0.328
   94SOL    HW1  300   0.554   0.197   0.253
   94SOL    HW2  301   0.527   0.351   0.297
   95SOL     OW  302   1.754   1.223   1.588
   95SOL    HW1  303   1.845   1.184   1.575
   95SOL    HW2  304   1.762   1.319   1.612
   96SOL     OW  305   1.064   1.347   1.340
   96SOL    HW1  306   0.984   1.324   1.395
   96SOL    HW2  307   1.147   1.321   1.389
   97SOL     OW  308   1.592   1.629   1.625
   97SOL    HW1  309   1.619   1.663   1.535
   97SOL    HW2  310   1.671   1.591   1.671
   98SOL     OW  311   1.111   1.195   1.100
   98SOL    HW1  312   1.071   1.239   1.181
   98SOL    HW2  313   1.070   1.232   1.017
   99SOL     OW  314   1.638   1.099   1.079
   99SOL    HW1  315   1.643   1.180   1.138
   99SOL    HW2  316   1.552   1.101   1.028
  100SOL     OW  317   0.915   0.089   1.402
  100SOL    HW1  318   0.940   0.069   1.307
  100SOL    HW2  319   0.987   0.145   1.444
  101SOL     OW  320   0.980   1.116   1.719
  101SOL    HW1  321   0.881   1.122   1.729
  101SOL    HW2  322   1.003   1.036   1.663
  102SOL     OW  323   0.705   1.050   0.368
  102SOL    HW1  324   0.691   1.057   0.467
  102SOL    HW2  325   0.789   0.999   0.350
  103SOL     OW  326   0.410   0.813   1.251
  103SOL    HW1  327   0.496   0.825   1.301
  103SOL    HW2  328   0.368   0.726   1.278
  104SOL     OW  329   1.274   0.386   1.262
  104SOL    HW1  330   1.295   0.460   1.326
  104SOL    HW2  331   1.185   0.403   1.219
  105SOL     OW  332   0.064   1.564   1.331
  105SOL    HW1  333   0.018   1.646   1.297
  105SOL    HW2  334   0.162   1.583   1.340
  106SOL     OW  335   0.367   1.100   0.501
  106SOL    HW1  336   0.360   1.183   0.445
  106SOL    HW2  337   0.371   1.020   0.441
  107SOL     OW  338   0.566   0.537   0.865
  107SOL    HW1  339   0.578   0.603   0.791
  107SOL    HW2  340   0.612   0.571   0.948
  108SOL     OW  341   1.252   1.348   0.388
  108SOL    HW1  342   1.302   1.425   0.428
  108SOL    HW2  343   1.157   1.350   0.420
  109SOL     OW  344   1.272   1.445   1.142
  109SOL    HW1  345   1.319   1.458   1.229
  109SOL    HW2  346   1.206   1.371   1.151
  110SOL     OW  347   1.582   0.639   0.472
  110SOL    HW1  348   1.551   0.700   0.545
  110SOL    HW2  349   1.632   0.691   0.403
  111SOL     OW  350   0.354   1.510   1.329
  111SOL    HW1  351   0.333   1.466   1.242
  111SOL    HW2  352   0.451   1.536   1.332
  112SOL     OW  353   0.402   0.751   1.598
  112SOL    HW1  354   0.470   0.806   1.551
  112SOL    HW2  355   0.442   0.663   1.625
  113SOL     OW  356   1.587   0.779   1.670
  113SOL    HW1  357   1.495   0.817   1.665
  113SOL    HW2  358   1.647   0.826   1.605
  114SOL     OW  359   1.013   0.105   1.770
  114SOL    HW1  360   1.019   0.190   1.718
  114SOL    HW2  361   1.045   0.029   1.713
  115SOL     OW  362   0.504   0.050   1.740
  115SOL    HW1  363   0.462  -0.007   1.670
  115SOL    HW2  364   0.438   0.119   1.772
  116SOL     OW  365   0.573   0.870   1.029
  116SOL    HW1  366   0.617   0.959   1.020
  116SOL    HW2  367   0.510   0.870   1.106
  117SOL     OW  368   1.360   0.862   1.045
  117SOL    HW1  369   1.285   0.862   0.979
  117SOL    HW2  370   1.397   0.770   1.054
  118SOL     OW  371   1.209   0.525   0.275
  118SOL    HW1  372   1.222   0.441   0.329
  118SOL    HW2  373   1.180   0.599   0.335
  119SOL     OW  374   0.307   0.213   1.231
  119SOL    HW1  375   0.284   0.250   1.321
  119SOL    HW2  376   0.277   0.118   1.225
  120SOL     OW  377   0.037   1.310   1.282
  120SOL    HW1  378   0.090   1.261   1.350
  120SOL    HW2  379   0.059   1.408   1.287
  121SOL     OW  380   0.732   0.634   1.064
  121SOL    HW1  381   0.791   0.608   0.988
  121SOL    HW2  382   0.704   0.730   1.053
  122SOL     OW  383   1.728   0.935   1.854
  122SOL    HW1  384   1.682   0.928   1.765
  122SOL    HW2  385   1.666   0.979   1.920
  123SOL     OW  386   0.307   0.063   0.618
  123SOL    HW1  387   0.296   0.157   0.651
  123SOL    HW2  388   0.302   0.000   0.695
  124SOL     OW  389   1.622   0.367   0.374
  124SOL    HW1  390   1.624   0.291   0.438
  124SOL    HW2  391   1.574   0.444   0.414
  125SOL     OW  392   1.023   0.766   0.966
  125SOL    HW1  393   1.038   0.787   1.062
  125SOL    HW2  394   0.993   0.671   0.957
  126SOL     OW  395   0.980   1.573   1.700
  126SOL    HW1  396   0.960   1.617   1.612
  126SOL    HW2  397   1.019   1.482   1.684
  127SOL     OW  398   1.859   1.518   1.605
  127SOL    HW1  399   1.873   1.545   1.510
  127SOL    HW2  400   1.942   1.540   1.658
  128SOL     OW  401   0.350   0.898   1.804
  128SOL    HW1  402   0.426   0.942   1.852
  128SOL    HW2  403   0.385   0.851   1.722
  129SOL     OW  404   1.540   0.274   0.125
  129SOL    HW1  405   1.479   0.199   0.148
  129SOL    HW2  406   1.562   0.326   0.208
  130SOL     OW  407   1.303   0.838   0.042
  130SOL    HW1  408   1.337   0.745   0.057
  130SOL    HW2  409   1.321   0.865  -0.053
  131SOL     OW  410   1.068   1.333   0.849
  131SOL    HW1  411   1.075   1.249   0.794
  131SOL    HW2  412   1.130   1.402   0.813
  132SOL     OW  413   0.319   0.810   0.949
  132SOL    HW1  414   0.412   0.846   0.954
  132SOL    HW2  415   0.313   0.725   1.001
  133SOL     OW  416   0.339   0.509   1.006
  133SOL    HW1  417   0.287   0.426   0.989
  133SOL    HW2  418   0.416   0.514   0.942
  134SOL     OW  419   1.138   0.380   1.678
  134SOL    HW1  420   1.093   0.443   1.742
  134SOL    HW2  421   1.231   0.411   1.661
  135SOL     OW  422   1.160   0.207   1.477
  135SOL    HW1  423   1.160   0.271   1.554
  135SOL    HW2  424   1.188   0.255   1.394
  136SOL     OW  425   0.008   1.326   0.200
  136SOL    HW1  426  -0.085   1.347   0.169
  136SOL    HW2  427   0.018   1.227   0.213
  137SOL     OW  428   0.088   1.801   0.927
  137SOL    HW1  429   0.046   1.715   0.900
  137SOL    HW2  430   0.182   1.804   0.893
  138SOL     OW  431   0.504   1.568   0.910
  138SOL    HW1  432   0.570   1.642   0.919
  138SOL    HW2  433   0.548   1.489   0.868
  139SOL     OW  434   1.002   0.796   1.238
  139SOL    HW1  435   1.043   0.764   1.324
  139SOL    HW2  436   0.906   0.769   1.235
  140SOL     OW  437   0.040   0.544   1.114
  140SOL    HW1  438   0.125   0.511   1.073
  140SOL    HW2  439   0.053   0.559   1.212
  141SOL     OW  440   0.189   0.520   1.722
  141SOL    HW1  441   0.248   0.480   1.652
  141SOL    HW2  442   0.131   0.591   1.681
  142SOL     OW  443   1.369   0.950   1.660
  142SOL    HW1  444   1.408   1.039   1.680
  142SOL    HW2  445   1.379   0.930   1.563
  143SOL     OW  446   0.815   0.572   0.325
  143SOL    HW1  447   0.822   0.483   0.279
  143SOL    HW2  448   0.721   0.606   0.317
  144SOL     OW  449   1.657   0.604   1.206
  144SOL    HW1  450   1.619   0.535   1.268
  144SOL    HW2  451   1.739   0.568   1.162
  145SOL     OW  452   0.252   1.564   1.744
  145SOL    HW1  453   0.222   1.621   1.820
  145SOL    HW2  454   0.245   1.467   1.770
  146SOL     OW  455   0.671   0.464   1.269
  146SOL    HW1  456   0.637   0.375   1.239
  146SOL    HW2  457   0.697   0.518   1.189
  147SOL     OW  458   0.930   1.678   1.465
  147SOL    HW1  459   0.906   1.660   1.370
  147SOL    HW2  460   0.960   1.772   1.475
  148SOL     OW  461   0.473   0.500   0.191
  148SOL    HW1  462   0.534   0.580   0.195
  148SOL    HW2  463   0.378   0.531   0.198
  149SOL     OW  464   0.159   1.137   1.466
  149SOL    HW1  465   0.181   1.076   1.542
  149SOL    HW2  466   0.169   1.088   1.380
  150SOL     OW  467   1.347   1.059   1.234
  150SOL    HW1  468   1.371   0.996   1.160
  150SOL    HW2  469   1.257   1.099   1.216
  151SOL     OW  470   1.302   0.855   0.309
  151SOL    HW1  471   1.216   0.824   0.351
  151SOL    HW2  472   1.298   0.841   0.210
  152SOL     OW  473   1.759   1.747   1.154
  152SOL    HW1  474   1.820   1.777   1.081
  152SOL    HW2  475   1.721   1.658   1.132
  153SOL     OW  476   1.252   1.731   1.128
  153SOL    HW1  477   1.336   1.736   1.074
  153SOL    HW2  478   1.229   1.635   1.146
  154SOL     OW  479   0.083   1.258   1.022
  154SOL    HW1  480   0.078   1.257   1.122
  154SOL    HW2  481   0.000   1.217   0.984
  155SOL     OW  482   0.688   1.662   1.716
  155SOL    HW1  483   0.632   1.743   1.725
  155SOL    HW2  484   0.740   1.666   1.630
  156SOL     OW  485   0.903   0.086   0.133
  156SOL    HW1  486   0.954   0.087   0.047
  156SOL    HW2  487   0.959   0.044   0.204
  157SOL     OW  488   1.726   0.135   0.523
  157SOL    HW1  489   1.799   0.118   0.456
  157SOL    HW2  490   1.695   0.048   0.561
  158SOL     OW  491   1.388   1.573   0.477
  158SOL    HW1  492   1.455   1.585   0.403
  158SOL    HW2  493   1.348   1.662   0.500
  159SOL     OW  494   0.130   1.794   1.851
  159SOL    HW1  495   0.089   1.720   1.904
  159SOL    HW2  496   0.194   1.845   1.909
  160SOL     OW  497   1.280   0.927   0.672
  160SOL    HW1  498   1.340   0.846   0.674
  160SOL    HW2  499   1.320   0.996   0.612
  161SOL     OW  500   0.830   1.273   1.422
  161SOL    HW1  501   0.825   1.306   1.517
  161SOL    HW2  502   0.744   1.292   1.376
  162SOL     OW  503   0.672   1.616   0.154
  162SOL    HW1  504   0.681   1.626   0.055
  162SOL    HW2  505   0.632   1.527   0.175
  163SOL     OW  506   1.650   1.720   1.394
  163SOL    HW1  507   1.703   1.730   1.310
  163SOL    HW2  508   1.623   1.810   1.428
  164SOL     OW  509   1.841   0.175   0.963
  164SOL    HW1  510   1.880   0.090   0.927
  164SOL    HW2  511   1.743   0.177   0.944
  165SOL     OW  512   0.263   0.326   0.720
  165SOL    HW1  513   0.184   0.377   0.686
  165SOL    HW2  514   0.254   0.311   0.818
  166SOL     OW  515   1.194   1.612   0.031
  166SOL    HW1  516   1.200   1.519   0.068
  166SOL    HW2  517   1.135   1.612  -0.049
  167SOL     OW  518   0.822   1.002   1.372
  167SOL    HW1  519   0.862   1.001   1.280
  167SOL    HW2  520   0.832   1.094   1.412
  168SOL     OW  521   0.916   0.910   0.291
  168SOL    HW1  522   0.979   0.948   0.223
  168SOL    HW2  523   0.956   0.827   0.330
  169SOL     OW  524   1.504   1.607   0.044
  169SOL    HW1  525   1.412   1.644   0.051
  169SOL    HW2  526   1.542   1.627  -0.046
  170SOL     OW  527   0.372   1.288   1.490
  170SOL    HW1  528   0.359   1.381   1.456
  170SOL    HW2  529   0.288   1.236   1.477
  171SOL     OW  530   1.614   1.292   1.289
  171SOL    HW1  531   1.674   1.295   1.369
  171SOL    HW2  532   1.539   1.356   1.302
  172SOL     OW  533   1.039   1.098   0.696
  172SOL    HW1  534   0.969   1.051   0.750
  172SOL    HW2  535   1.098   1.030   0.653
  173SOL     OW  536   1.014   0.236   0.971
  173SOL    HW1  537   1.006   0.200   0.878
  173SOL    HW2  538   1.012   0.160   1.036
  174SOL     OW  539   0.590   1.487   0.491
  174SOL    HW1  540   0.632   1.429   0.421
  174SOL    HW2  541   0.546   1.566   0.447
  175SOL     OW  542   1.709   0.385   1.381
  175SOL    HW1  543   1.782   0.454   1.385
  175SOL    HW2  544   1.737   0.310   1.322
  176SOL     OW  545   0.255   1.348   0.290
  176SOL    HW1  546   0.159   1.349   0.263
  176SOL    HW2  547   0.267   1.401   0.374
  177SOL     OW  548   0.105   1.013   1.726
  177SOL    HW1  549   0.028   0.980   1.780
  177SOL    HW2  550   0.190   0.983   1.768
  178SOL     OW  551   0.672   0.203   1.489
  178SOL    HW1  552   0.762   0.187   1.449
  178SOL    HW2  553   0.680   0.208   1.588
  179SOL     OW  554   0.075   0.345   0.033
  179SOL    HW1  555  -0.017   0.317   0.004
  179SOL    HW2  556   0.106   0.422  -0.023
  180SOL     OW  557   1.440   0.856   1.398
  180SOL    HW1  558   1.383   0.908   1.335
  180SOL    HW2  559   1.536   0.868   1.374
  181SOL     OW  560   0.072   0.166   0.318
  181SOL    HW1  561   0.055   0.249   0.264
  181SOL    HW2  562   0.162   0.129   0.296
  182SOL     OW  563   1.183   1.335   0.119
  182SOL    HW1  564   1.084   1.324   0.121
  182SOL    HW2  565   1.217   1.350   0.212
  183SOL     OW  566   0.613   0.842   1.431
  183SOL    HW1  567   0.669   0.923   1.414
  183SOL    HW2  568   0.672   0.762   1.434
  184SOL     OW  569   1.493   1.767   0.959
  184SOL    HW1  570   1.526   1.831   0.890
  184SOL    HW2  571   1.559   1.761   1.034
  185SOL     OW  572   0.716   0.565   1.708
  185SOL    HW1  573   0.735   0.630   1.782
  185SOL    HW2  574   0.776   0.485   1.717
  186SOL     OW  575   1.450   1.220   1.633
  186SOL    HW1  576   1.441   1.210   1.732
  186SOL    HW2  577   1.546   1.213   1.607
  187SOL     OW  578   0.390   1.741   1.560
  187SOL    HW1  579   0.299   1.782   1.558
  187SOL    HW2  580   0.383   1.647   1.592
  188SOL     OW  581   1.674   0.883   1.254
  188SOL    HW1  582   1.647   0.794   1.217
  188SOL    HW2  583   1.675   0.951   1.181
  189SOL     OW  584   1.225   0.325   0.449
  189SOL    HW1  585   1.290   0.251   0.438
  189SOL    HW2  586   1.245   0.375   0.533
  190SOL     OW  587   0.594   0.745   0.652
  190SOL    HW1  588   0.644   0.830   0.633
  190SOL    HW2  589   0.506   0.747   0.604
  191SOL     OW  590   1.777   0.342   1.642
  191SOL    HW1  591   1.760   0.373   1.548
  191SOL    HW2  592   1.693   0.305   1.680
  192SOL     OW  593   1.730   0.934   1.517
  192SOL    HW1  594   1.768   1.025   1.532
  192SOL    HW2  595   1.722   0.917   1.418
  193SOL     OW  596   0.859   1.374   0.016
  193SOL    HW1  597   0.813   1.389   0.104
  193SOL    HW2  598   0.903   1.459  -0.014
  194SOL     OW  599   0.661   1.790   0.953
  194SOL    HW1  600   0.615   1.878   0.940
  194SOL    HW2  601   0.760   1.802   0.946
  195SOL     OW  602   0.859   0.956   0.861
  195SOL    HW1  603   0.913   0.887   0.909
  195SOL    HW2  604   0.827   1.025   0.927
  196SOL     OW  605   1.083   0.984   0.087
  196SOL    HW1  606   1.060   1.037   0.005
  196SOL    HW2  607   1.164   0.928   0.068
  197SOL     OW  608   1.861   1.569   0.851
  197SOL    HW1  609   1.790   1.557   0.781
  197SOL    HW2  610   1.862   1.490   0.911
  198SOL     OW  611   0.221   1.314   1.844
  198SOL    HW1  612   0.156   1.241   1.823
  198SOL    HW2  613   0.225   1.328   1.942
  199SOL     OW  614   0.079   1.240   0.653
  199SOL    HW1  615   0.078   1.193   0.741
  199SOL    HW2  616   0.161   1.212   0.602
  200SOL     OW  617   0.672   1.391   1.624
  200SOL    HW1  618   0.594   1.341   1.662
  200SOL    HW2  619   0.669   1.486   1.655
  201SOL     OW  620   1.824   0.192   1.227
  201SOL    HW1  621   1.820   0.102   1.271
  201SOL    HW2  622   1.827   0.181   1.128
  202SOL     OW  623   0.428   0.424   0.520
  202SOL    HW1  624   0.458   0.352   0.458
  202SOL    HW2  625   0.389   0.384   0.603
  203SOL     OW  626   1.705   1.487   1.104
  203SOL    HW1  627   1.612   1.462   1.077
  203SOL    HW2  628   1.731   1.437   1.186
  204SOL     OW  629   0.317   0.547   1.280
  204SOL    HW1  630   0.355   0.488   1.352
  204SOL    HW2  631   0.357   0.521   1.192
  205SOL     OW  632   0.812   1.586   0.687
  205SOL    HW1  633   0.844   1.596   0.593
  205SOL    HW2  634   0.733   1.524   0.689
  206SOL     OW  635   1.424   0.214   1.112
  206SOL    HW1  636   1.476   0.149   1.167
  206SOL    HW2  637   1.375   0.277   1.173
  207SOL     OW  638   1.001   0.034   1.154
  207SOL    HW1  639   0.938  -0.038   1.123
  207SOL    HW2  640   1.094  -0.002   1.154
  208SOL     OW  641   0.770   1.330   0.301
  208SOL    HW1  642   0.724   1.243   0.318
  208SOL    HW2  643   0.861   1.327   0.342
  209SOL     OW  644   0.618   1.567   1.284
  209SOL    HW1  645   0.613   1.649   1.341
  209SOL    HW2  646   0.707   1.564   1.239
  210SOL     OW  647   1.352   0.052   0.168
  210SOL    HW1  648   1.387   0.011   0.084
  210SOL    HW2  649   1.262   0.014   0.188
  211SOL     OW  650   1.300   0.453   0.691
  211SOL    HW1  651   1.241   0.533   0.695
  211SOL    HW2  652   1.315   0.418   0.784
  212SOL     OW  653   1.593   0.221   0.882
  212SOL    HW1  654   1.509   0.220   0.936
  212SOL    HW2  655   1.595   0.304   0.826
  213SOL     OW  656   0.039   1.077   0.300
  213SOL    HW1  657   0.138   1.066   0.291
  213SOL    HW2  658  -0.001   0.991   0.332
  214SOL     OW  659   0.875   1.646   0.337
  214SOL    HW1  660   0.798   1.611   0.283
  214SOL    HW2  661   0.843   1.717   0.399
  215SOL     OW  662   0.230   0.628   1.975
  215SOL    HW1  663   0.137   0.626   2.012
  215SOL    HW2  664   0.231   0.589   1.883
  216SOL     OW  665   0.225   0.275   2.858
  216SOL    HW1  666   0.260   0.258   2.950
  216SOL    HW2  667   0.137   0.230   2.846
  217SOL     OW  668   0.019   0.368   2.509
  217SOL    HW1  669  -0.063   0.411   2.548
  217SOL    HW2  670  -0.009   0.295   2.446
  218SOL     OW  671   0.569   1.275   3.027
  218SOL    HW1  672   0.476   1.268   2.990
  218SOL    HW2  673   0.580   1.364   3.071
  219SOL     OW  674   1.555   1.511   2.565
  219SOL    HW1  675   1.498   1.495   2.646
  219SOL    HW2  676   1.496   1.521   2.485
  220SOL     OW  677   1.135   0.703   2.579
  220SOL    HW1  678   1.192   0.781   2.554
  220SOL    HW2  679   1.075   0.729   2.655
  221SOL     OW  680   1.755   0.607   2.093
  221SOL    HW1  681   1.743   0.594   1.994
  221SOL    HW2  682   1.725   0.526   2.142
  222SOL     OW  683   0.768   1.144   2.885
  222SOL    HW1  684   0.690   1.161   2.945
  222SOL    HW2  685   0.802   1.231   2.849
  223SOL     OW  686   0.850   0.798   3.685
  223SOL    HW1  687   0.846   0.874   3.750
  223SOL    HW2  688   0.872   0.834   3.594
  224SOL     OW  689   0.685   1.012   2.527
  224SOL    HW1  690   0.754   0.996   2.597
  224SOL    HW2  691   0.612   1.069   2.565
  225SOL     OW  692   0.686   1.161   3.665
  225SOL    HW1  693   0.746   1.240   3.679
  225SOL    HW2  694   0.600   1.192   3.624
  226SOL     OW  695   0.335   1.435   2.923
  226SOL    HW1  696   0.257   1.404   2.870
  226SOL    HW2  697   0.393   1.493   2.866
  227SOL     OW  698   1.460   1.505   3.201
  227SOL    HW1  699   1.484   1.599   3.227
  227SOL    HW2  700   1.444   1.451   3.283
  228SOL     OW  701   0.438   0.392   3.361
  228SOL    HW1  702   0.520   0.336   3.370
  228SOL    HW2  703   0.357   0.334   3.365
  229SOL     OW  704   1.603   0.447   2.599
  229SOL    HW1  705   1.529   0.493   2.549
  229SOL    HW2  706   1.654   0.515   2.652
  230SOL     OW  707   0.231   1.713   2.345
  230SOL    HW1  708   0.265   1.790   2.399
  230SOL    HW2  709   0.275   1.713   2.255
  231SOL     OW  710   1.127   1.341   3.552
  231SOL    HW1  711   1.174   1.341   3.640
  231SOL    HW2  712   1.079   1.254   3.541
  232SOL     OW  713   0.230   1.434   2.400
  232SOL    HW1  714   0.204   1.530   2.400
  232SOL    HW2  715   0.159   1.380   2.445
  233SOL     OW  716   0.240   1.091   2.748
  233SOL    HW1  717   0.254   1.007   2.800
  233SOL    HW2  718   0.185   1.155   2.803
  234SOL     OW  719   0.620   1.786   3.301
  234SOL    HW1  720   0.528   1.769   3.336
  234SOL    HW2  721   0.648   1.878   3.327
  235SOL     OW  722   0.606   0.964   1.985
  235SOL    HW1  723   0.613   1.048   1.931
  235SOL    HW2  724   0.652   0.977   2.073
  236SOL     OW  725   1.594   0.114   3.342
  236SOL    HW1  726   1.576   0.181   3.270
  236SOL    HW2  727   1.591   0.160   3.431
  237SOL     OW  728   0.122   0.643   2.425
  237SOL    HW1  729   0.077   0.555   2.442
  237SOL    HW2  730   0.121   0.697   2.509
  238SOL     OW  731   1.842   1.767   2.221
  238SOL    HW1  732   1.896   1.738   2.301
  238SOL    HW2  733   1.872   1.857   2.192
  239SOL     OW  734   0.027   1.596   1.979
  239SOL    HW1  735   0.008   1.500   2.000
  239SOL    HW2  736  -0.006   1.654   2.054
  240SOL     OW  737   1.689   0.922   2.474
  240SOL    HW1  738   1.784   0.893   2.482
  240SOL    HW2  739   1.681   0.987   2.399
  241SOL     OW  740   1.641   1.108   2.294
  241SOL    HW1  741   1.727   1.110   2.242
  241SOL    HW2  742   1.655   1.155   2.382
  242SOL     OW  743   0.113   0.737   3.459
  242SOL    HW1  744   0.201   0.724   3.504
  242SOL    HW2  745   0.100   0.834   3.437
  243SOL     OW  746   0.613   1.365   2.588
  243SOL    HW1  747   0.564   1.278   2.597
  243SOL    HW2  748   0.590   1.408   2.501
  244SOL     OW  749   1.293   1.228   3.285
  244SOL    HW1  750   1.330   1.155   3.227
  244SOL    HW2  751   1.345   1.233   3.370
  245SOL     OW  752   0.809   0.004   2.364
  245SOL    HW1  753   0.849   0.095   2.355
  245SOL    HW2  754   0.709   0.012   2.370
  246SOL     OW  755   0.197   0.976   3.126
  246SOL    HW1  756   0.286   0.931   3.112
  246SOL    HW2  757   0.124   0.911   3.107
  247SOL     OW  758   1.525   0.999   2.052
  247SOL    HW1  759   1.462   0.923   2.065
  247SOL    HW2  760   1.573   1.017   2.138
  248SOL     OW  761   1.187   1.792   3.478
  248SOL    HW1  762   1.211   1.852   3.402
  248SOL    HW2  763   1.194   1.697   3.448
  249SOL     OW  764   0.317   0.251   3.663
  249SOL    HW1  765   0.388   0.322   3.669
  249SOL    HW2  766   0.229   0.290   3.691
  250SOL     OW  767   1.466   1.417   2.815
  250SOL    HW1  768   1.407   1.423   2.895
  250SOL    HW2  769   1.451   1.329   2.769
  251SOL     OW  770   1.667   1.714   2.434
  251SOL    HW1  771   1.626   1.691   2.346
  251SOL    HW2  772   1.649   1.640   2.499
  252SOL     OW  773   0.598   0.729   2.132
  252SOL    HW1  774   0.622   0.798   2.064
  252SOL    HW2  775   0.520   0.762   2.186
  253SOL     OW  776   1.281   0.345   2.806
  253SOL    HW1  777   1.195   0.295   2.793
  253SOL    HW2  778   1.343   0.291   2.862
  254SOL     OW  779   1.576   1.662   2.169
  254SOL    HW1  780   1.665   1.708   2.172
  254SOL    HW2  781   1.555   1.638   2.074
  255SOL     OW  782   0.807   0.605   3.327
  255SOL    HW1  783   0.760   0.602   3.416
  255SOL    HW2  784   0.756   0.550   3.261
  256SOL     OW  785   1.394   0.469   3.536
  256SOL    HW1  786   1.374   0.512   3.624
  256SOL    HW2  787   1.472   0.407   3.545
  257SOL     OW  788   0.973   0.890   3.434
  257SOL    HW1  789   1.019   0.806   3.405
  257SOL    HW2  790   0.917   0.924   3.359
  258SOL     OW  791   0.991   0.410   3.104
  258SOL    HW1  792   0.914   0.444   3.158
  258SOL    HW2  793   0.957   0.359   3.025
  259SOL     OW  794   1.041   0.701   2.291
  259SOL    HW1  795   1.067   0.697   2.387
  259SOL    HW2  796   0.956   0.650   2.277
  260SOL     OW  797   0.076   0.811   2.651
  260SOL    HW1  798   0.175   0.799   2.660
  260SOL    HW2  799   0.052   0.906   2.672
  261SOL     OW  800   0.130   1.821   3.433
  261SOL    HW1  801   0.120   1.806   3.532
  261SOL    HW2  802   0.044   1.857   3.397
  262SOL     OW  803   0.865   0.348   2.057
  262SOL    HW1  804   0.924   0.411   2.008
  262SOL    HW2  805   0.884   0.254   2.028
  263SOL     OW  806   1.719   0.585   3.693
  263SOL    HW1  807   1.693   0.674   3.657
  263SOL    HW2  808   1.717   0.517   3.620
  264SOL     OW  809   1.362   1.144   2.407
  264SOL    HW1  810   1.445   1.115   2.359
  264SOL    HW2  811   1.313   1.211   2.351
  265SOL     OW  812   0.550   0.196   2.747
  265SOL    HW1  813   0.545   0.191   2.847
  265SOL    HW2  814   0.552   0.292   2.718
  266SOL     OW  815   1.008   1.456   2.339
  266SOL    HW1  816   0.962   1.528   2.287
  266SOL    HW2  817   1.004   1.476   2.437
  267SOL     OW  818   0.351   1.801   2.715
  267SOL    HW1  819   0.401   1.715   2.721
  267SOL    HW2  820   0.416   1.878   2.712
  268SOL     OW  821   1.795   1.066   2.735
  268SOL    HW1  822   1.733   1.051   2.659
  268SOL    HW2  823   1.743   1.077   2.820
  269SOL     OW  824   1.227   1.550   3.368
  269SOL    HW1  825   1.233   1.473   3.432
  269SOL    HW2  826   1.175   1.524   3.288
  270SOL     OW  827   0.321   0.943   2.104
  270SOL    HW1  828   0.403   0.982   2.062
  270SOL    HW2  829   0.294   0.861   2.055
  271SOL     OW  830   1.458   0.735   2.590
  271SOL    HW1  831   1.453   0.670   2.665
  271SOL    HW2  832   1.538   0.794   2.603
  272SOL     OW  833   0.461   1.266   3.589
  272SOL    HW1  834   0.411   1.267   3.503
  272SOL    HW2  835   0.398   1.248   3.665
  273SOL     OW  836   1.111   1.776   2.099
  273SOL    HW1  837   1.051   1.714   2.149
  273SOL    HW2  838   1.142   1.732   2.014
  274SOL     OW  839   0.202   0.285   3.360
  274SOL    HW1  840   0.122   0.345   3.347
  274SOL    HW2  841   0.192   0.236   3.446
  275SOL     OW  842   1.632   1.377   1.943
  275SOL    HW1  843   1.600   1.471   1.933
  275SOL    HW2  844   1.556   1.314   1.931
  276SOL     OW  845   0.464   1.743   2.185
  276SOL    HW1  846   0.497   1.782   2.271
  276SOL    HW2  847   0.540   1.736   2.120
  277SOL     OW  848   1.400   0.107   2.288
  277SOL    HW1  849   1.376   0.070   2.198
  277SOL    HW2  850   1.499   0.123   2.292
  278SOL     OW  851   0.249   1.785   3.103
  278SOL    HW1  852   0.306   1.720   3.153
  278SOL    HW2  853   0.233   1.752   3.010
  279SOL     OW  854   0.940   1.698   2.766
  279SOL    HW1  855   1.020   1.641   2.787
  279SOL    HW2  856   0.891   1.658   2.689
  280SOL     OW  857   0.382   0.700   2.342
  280SOL    HW1  858   0.427   0.610   2.339
  280SOL    HW2  859   0.288   0.689   2.375
  281SOL     OW  860   1.547   0.222   3.591
  281SOL    HW1  861   1.542   0.259   3.683
  281SOL    HW2  862   1.475   0.153   3.579
  282SOL     OW  863   0.614   0.122   1.979
  282SOL    HW1  864   0.712   0.100   1.986
  282SOL    HW2  865   0.583   0.105   1.886
  283SOL     OW  866   0.781   0.264   3.611
  283SOL    HW1  867   0.848   0.203   3.654
  283SOL    HW2  868   0.708   0.283   3.676
  284SOL     OW  869   0.888   1.514   3.057
  284SOL    HW1  870   0.865   1.489   2.963
  284SOL    HW2  871   0.949   1.445   3.096
  285SOL     OW  872   1.351   0.590   3.295
  285SOL    HW1  873   1.379   0.547   3.380
  285SOL    HW2  874   1.376   0.686   3.296
  286SOL     OW  875   0.803   1.402   2.786
  286SOL    HW1  876   0.893   1.416   2.744
  286SOL    HW2  877   0.732   1.404   2.715
  287SOL     OW  878   0.922   0.503   2.761
  287SOL    HW1  879   0.897   0.494   2.665
  287SOL    HW2  880   0.970   0.421   2.792
  288SOL     OW  881   0.539   0.064   2.374
  288SOL    HW1  882   0.458   0.065   2.432
  288SOL    HW2  883   0.542   0.147   2.319
  289SOL     OW  884   1.434   1.188   1.903
  289SOL    HW1  885   1.466   1.112   1.960
  289SOL    HW2  886   1.342   1.215   1.933
  290SOL     OW  887   0.297   0.035   2.033
  290SOL    HW1  888   0.346   0.119   2.012
  290SOL    HW2  889   0.359  -0.030   2.078
  291SOL     OW  890   0.935   0.236   2.342
  291SOL    HW1  891   0.887   0.277   2.264
  291SOL    HW2  892   1.034   0.234   2.323
  292SOL     OW  893   1.076   0.683   3.326
  292SOL    HW1  894   0.996   0.622   3.329
  292SOL    HW2  895   1.157   0.630   3.302
  293SOL     OW  896   1.227   1.570   2.655
  293SOL    HW1  897   1.248   1.644   2.590
  293SOL    HW2  898   1.295   1.570   2.728
  294SOL     OW  899   0.459   1.152   2.603
  294SOL    HW1  900   0.388   1.125   2.668
  294SOL    HW2  901   0.433   1.124   2.510
  295SOL     OW  902   1.271   1.797   2.453
  295SOL    HW1  903   1.315   1.861   2.389
  295SOL    HW2  904   1.221   1.849   2.523
  296SOL     OW  905   1.032   0.549   1.878
  296SOL    HW1  906   0.991   0.631   1.839
  296SOL    HW2  907   1.096   0.575   1.951
  297SOL     OW  908   0.078   0.556   3.248
  297SOL    HW1  909   0.170   0.555   3.207
  297SOL    HW2  910   0.072   0.630   3.315
  298SOL     OW  911   0.561   0.222   3.009
  298SOL    HW1  912   0.599   0.138   3.046
  298SOL    HW2  913   0.473   0.241   3.053
  299SOL     OW  914   0.866   0.454   2.504
  299SOL    HW1  915   0.834   0.526   2.442
  299SOL    HW2  916   0.890   0.373   2.451
  300SOL     OW  917   1.017   0.039   2.615
  300SOL    HW1  918   0.945   0.044   2.546
  300SOL    HW2  919   0.993  -0.030   2.684
  301SOL     OW  920   1.429   1.173   2.729
  301SOL    HW1  921   1.374   1.089   2.722
  301SOL    HW2  922   1.455   1.202   2.637
  302SOL     OW  923   1.466   0.590   2.854
  302SOL    HW1  924   1.436   0.495   2.861
  302SOL    HW2  925   1.539   0.606   2.920
  303SOL     OW  926   1.857   0.833   2.239
  303SOL    HW1  927   1.899   0.769   2.303
  303SOL    HW2  928   1.819   0.782   2.161
  304SOL     OW  929   0.488   1.385   2.036
  304SOL    HW1  930   0.401   1.370   2.083
  304SOL    HW2  931   0.471   1.411   1.941
  305SOL     OW  932   1.664   1.280   2.519
  305SOL    HW1  933   1.763   1.288   2.533
  305SOL    HW2  934   1.619   1.364   2.550
  306SOL     OW  935   1.390   0.575   1.940
  306SOL    HW1  936   1.336   0.554   2.021
  306SOL    HW2  937   1.481   0.534   1.949
  307SOL     OW  938   0.527   0.256   2.190
  307SOL    HW1  939   0.554   0.197   2.115
  307SOL    HW2  940   0.527   0.351   2.159
  308SOL     OW  941   1.754   1.223   3.450
  308SOL    HW1  942   1.845   1.184   3.437
  308SOL    HW2  943   1.762   1.319   3.474
  309SOL     OW  944   1.064   1.347   3.202
  309SOL    HW1  945   0.984   1.324   3.257
  309SOL    HW2  946   1.147   1.321   3.251
  310SOL     OW  947   1.592   1.629   3.487
  310SOL    HW1  948   1.619   1.663   3.397
  310SOL    HW2  949   1.671   1.591   3.533
  311SOL     OW  950   1.111   1.195   2.962
  311SOL    HW1  951   1.071   1.239   3.043
  311SOL    HW2  952   1.070   1.232   2.879
  312SOL     OW  953   1.638   1.099   2.941
  312SOL    HW1  954   1.643   1.180   3.000
  312SOL    HW2  955   1.552   1.101   2.890
  313SOL     OW  956   0.915   0.089   3.264
  313SOL    HW1  957   0.940   0.069   3.169
  313SOL    HW2  958   0.987   0.145   3.306
  314SOL     OW  959   0.980   1.116   3.581
  314SOL    HW1  960   0.881   1.122   3.591
  314SOL    HW2  961   1.003   1.036   3.525
  315SOL     OW  962   0.705   1.050   2.230
  315SOL    HW1  963   0.691   1.057   2.329
  315SOL    HW2  964   0.789   0.999   2.212
  316SOL     OW  965   0.410   0.813   3.113
  316SOL    HW1  966   0.496   0.825   3.163
  316SOL    HW2  967   0.368   0.726   3.140
  317SOL     OW  968   1.274   0.386   3.124
  317SOL    HW1  969   1.295   0.460   3.188
  317SOL    HW2  970   1.185   0.403   3.081
  318SOL     OW  971   0.064   1.564   3.193
  318SOL    HW1  972   0.018   1.646   3.159
  318SOL    HW2  973   0.162   1.583   3.202
  319SOL     OW  974   0.367   1.100   2.363
  319SOL    HW1  975   0.360   1.183   2.307
  319SOL    HW2  976   0.371   1.020   2.303
  320SOL     OW  977   0.566   0.537   2.727
  320SOL    HW1  978   0.578   0.603   2.653
  320SOL    HW2  979   0.612   0.571   2.810
  321SOL     OW  980   1.252   1.348   2.250
  321SOL    HW1  981   1.302   1.425   2.290
  321SOL    HW2  982   1.157   1.350   2.282
  322SOL     OW  983   1.272   1.445   3.004
  322SOL    HW1  984   1.319   1.458   3.091
  322SOL    HW2  985   1.206   1.371   3.013
  323SOL     OW  986   1.582   0.639   2.334
  323SOL    HW1  987   1.551   0.700   2.407
  323SOL    HW2  988   1.632   0.691   2.265
  324SOL     OW  989   0.354   1.510   3.191
  324SOL    HW1  990   0.333   1.466   3.104
  324SOL    HW2  991   0.451   1.536   3.194
  325SOL     OW  992   0.402   0.751   3.460
  325SOL    HW1  993   0.470   0.806   3.413
  325SOL    HW2  994   0.442   0.663   3.487
  326SOL     OW  995   1.587   0.779   3.532
  326SOL    HW1  996   1.495   0.817   3.527
  326SOL    HW2  997   1.647   0.826   3.467
  327SOL     OW  998   1.013   0.105   3.632
  327SOL    HW1  999   1.019   0.190   3.580
  327SOL    HW2 1000   1.045   0.029   3.575
  328SOL     OW 1001   0.504   0.050   3.602
  328SOL    HW1 1002   0.462  -0.007   3.532
  328SOL    HW2 1003   0.438   0.119   3.634
  329SOL     OW 1004   0.573   0.870   2.891
  329SOL    HW1 1005   0.617   0.959   2.882
  329SOL    HW2 1006   0.510   0.870   2.968
  330SOL     OW 1007   1.360   0.862   2.907
  330SOL    HW1 1008   1.285   0.862   2.841
  330SOL    HW2 1009   1.397   0.770   2.916
  331SOL     OW 1010   1.209   0.525   2.137
  331SOL    HW1 1011   1.222   0.441   2.191
  331SOL    HW2 1012   1.180   0.599   2.197
  332SOL     OW 1013   0.307   0.213   3.093
  332SOL    HW1 1014   0.284   0.250   3.183
  332SOL    HW2 1015   0.277   0.118   3.087
  333SOL     OW 1016   0.037   1.310   3.144
  333SOL    HW1 1017   0.090   1.261   3.212
  333SOL    HW2 1018   0.059   1.408   3.149
  334SOL     OW 1019   0.732   0.634   2.926
  334SOL    HW1 1020   0.791   0.608   2.850
  334SOL    HW2 1021   0.704   0.730   2.915
  335SOL     OW 1022   1.728   0.935   3.716
  335SOL    HW1 1023   1.682   0.928   3.627
  335SOL    HW2 1024   1.666   0.979   3.782
  336SOL     OW 1025   0.307   0.063   2.480
  336SOL    HW1 1026   0.296   0.157   2.513
  336SOL    HW2 1027   0.302   0.000   2.557
  337SOL     OW 1028   1.622   0.367   2.236
  337SOL    HW1 1029   1.624   0.291   2.300
  337SOL    HW2 1030   1.574   0.444   2.276
  338SOL     OW 1031   1.023   0.766   2.828
  338SOL    HW1 1032   1.038   0.787   2.924
  338SOL    HW2 1033   0.993   0.671   2.819
  339SOL     OW 1034   0.980   1.573   3.562
  339SOL    HW1 1035   0.960   1.617   3.474
  339SOL    HW2 1036   1.019   1.482   3.546
  340SOL     OW 1037   1.859   1.518   3.467
  340SOL    HW1 1038   1.873   1.545   3.372
  340SOL    HW2 1039   1.942   1.540   3.520
  341SOL     OW 1040   0.350   0.898   3.666
  341SOL    HW1 1041   0.426   0.942   3.714
  341SOL    HW2 1042   0.385   0.851   3.584
  342SOL     OW 1043   1.540   0.274   1.987
  342SOL    HW1 1044   1.479   0.199   2.010
  342SOL    HW2 1045   1.562   0.326   2.070
  343SOL     OW 1046   1.303   0.838   1.904
  343SOL    HW1 1047   1.337   0.745   1.919
  343SOL    HW2 1048   1.321   0.865   1.809
  344SOL     OW 1049   1.068   1.333   2.711
  344SOL    HW1 1050   1.075   1.249   2.656
  344SOL    HW2 1051   1.130   1.402   2.675
  345SOL     OW 1052   0.319   0.810   2.811
  345SOL    HW1 1053   0.412   0.846   2.816
  345SOL    HW2 1054   0.313   0.725   2.863
  346SOL     OW 1055   0.339   0.509   2.868
  346SOL    HW1 1056   0.287   0.426   2.851
  346SOL    HW2 1057   0.416   0.514   2.804
  347SOL     OW 1058   1.138   0.380   3.540
  347SOL    HW1 1059   1.093   0.443   3.604
  347SOL    HW2 1060   1.231   0.411   3.523
  348SOL     OW 1061   1.160   0.207   3.339
  348SOL    HW1 1062   1.160   0.271   3.416
  348SOL    HW2 1063   1.188   0.255   3.256
  349SOL     OW 1064   0.008   1.326   2.062
  349SOL    HW1 1065  -0.085   1.347   2.031
  349SOL    HW2 1066   0.018   1.227   2.075
  350SOL     OW 1067   0.088   1.801   2.789
  350SOL    HW1 1068   0.046   1.715   2.762
  350SOL    HW2 1069   0.182   1.804   2.755
  351SOL     OW 1070   0.504   1.568   2.772
  351SOL    HW1 1071   0.570   1.642   2.781
  351SOL    HW2 1072   0.548   1.489   2.730
  352SOL     OW 1073   1.002   0.796   3.100
  352SOL    HW1 1074   1.043   0.764   3.186
  352SOL    HW2 1075   0.906   0.769   3.097
  353SOL     OW 1076   0.040   0.544   2.976
  353SOL    HW1 1077   0.125   0.511   2.935
  353SOL    HW2 1078   0.053   0.559   3.074
  354SOL     OW 1079   0.189   0.520   3.584
  354SOL    HW1 1080   0.248   0.480   3.514
  354SOL    HW2 1081   0.131   0.591   3.543
  355SOL     OW 1082   1.369   0.950   3.522
  355SOL    HW1 1083   1.408   1.039   3.542
  355SOL    HW2 1084   1.379   0.930   3.425
  356SOL     OW 1085   0.815   0.572   2.187
  356SOL    HW1 1086   0.822   0.483   2.141
  356SOL    HW2 1087   0.721   0.606   2.179
  357SOL     OW 1088   1.657   0.604   3.068
  357SOL    HW1 1089   1.619   0.535   3.130
  357SOL    HW2 1090   1.739   0.568   3.024
  358SOL     OW 1091   0.252   1.564   3.606
  358SOL    HW1 1092   0.222   1.621   3.682
  358SOL    HW2 1093   0.245   1.467   3.632
  359SOL     OW 1094   0.671   0.464   3.131
  359SOL    HW1 1095   0.637   0.375   3.101
  359SOL    HW2 1096   0.697   0.518   3.051
  360SOL     OW 1097   0.930   1.678   3.327
  360SOL    HW1 1098   0.906   1.660   3.232
  360SOL    HW2 1099   0.960   1.772   3.337
  361SOL     OW 1100   0.473   0.500   2.053
  361SOL    HW1 1101   0.534   0.580   2.057
  361SOL    HW2 1102   0.378   0.531   2.060
  362SOL     OW 1103   0.159   1.137   3.328
  362SOL    HW1 1104   0.181   1.076   3.404
  362SOL    HW2 1105   0.169   1.088   3.242
  363SOL     OW 1106   1.347   1.059   3.096
  363SOL    HW1 1107   1.371   0.996   3.022
  363SOL    HW2 1108   1.257   1.099   3.078
  364SOL     OW 1109   1.302   0.855   2.171
  364SOL    HW1 1110   1.216   0.824   2.213
  364SOL    HW2 1111   1.298   0.841   2.072
  365SOL     OW 1112   1.759   1.747   3.016
  365SOL    HW1 1113   1.820   1.777   2.943
  365SOL    HW2 1114   1.721   1.658   2.994
  366SOL     OW 1115   1.252   1.731   2.990
  366SOL    HW1 1116   1.336   1.736   2.936
  366SOL    HW2 1117   1.229   1.635   3.008
  367SOL     OW 1118   0.083   1.258   2.884
  367SOL    HW1 1119   0.078   1.257   2.984
  367SOL    HW2 1120   0.000   1.217   2.846
  368SOL     OW 1121   0.688   1.662   3.578
  368SOL    HW1 1122   0.632   1.743   3.587
  368SOL    HW2 1123   0.740   1.666   3.492
  369SOL     OW 1124   1.726   0.135   2.385
  369SOL    HW1 1125   1.799   0.118   2.318
  369SOL    HW2 1126   1.695   0.048   2.423
  370SOL     OW 1127   1.388   1.573   2.339
  370SOL    HW1 1128   1.455   1.585   2.265
  370SOL    HW2 1129   1.348   1.662   2.362
  371SOL     OW 1130   0.130   1.794   3.713
  371SOL    HW1 1131   0.089   1.720   3.766
  371SOL    HW2 1132   0.194   1.845   3.771
  372SOL     OW 1133   1.280   0.927   2.534
  372SOL    HW1 1134   1.340   0.846   2.536
  372SOL    HW2 1135   1.320   0.996   2.474
  373SOL     OW 1136   0.830   1.273   3.284
  373SOL    HW1 1137   0.825   1.306   3.379
  373SOL    HW2 1138   0.744   1.292   3.238
  374SOL     OW 1139   0.672   1.616   2.016
  374SOL    HW1 1140   0.681   1.626   1.917
  374SOL    HW2 1141   0.632   1.527   2.037
  375SOL     OW 1142   1.650   1.720   3.256
  375SOL    HW1 1143   1.703   1.730   3.172
  375SOL    HW2 1144   1.623   1.810   3.290
  376SOL     OW 1145   1.841   0.175   2.825
  376SOL    HW1 1146   1.880   0.090   2.789
  376SOL    HW2 1147   1.743   0.177   2.806
  377SOL     OW 1148   0.263   0.326   2.582
  377SOL    HW1 1149   0.184   0.377   2.548
  377SOL    HW2 1150   0.254   0.311   2.680
  378SOL     OW 1151   1.194   1.612   1.893
  378SOL    HW1 1152   1.200   1.519   1.930
  378SOL    HW2 1153   1.135   1.612   1.813
  379SOL     OW 1154   0.822   1.002   3.234
  379SOL    HW1 1155   0.862   1.001   3.142
  379SOL    HW2 1156   0.832   1.094   3.274
  380SOL     OW 1157   0.916   0.910   2.153
  380SOL    HW1 1158   0.979   0.948   2.085
  380SOL    HW2 1159   0.956   0.827   2.192
  381SOL     OW 1160   1.504   1.607   1.906
  381SOL    HW1 1161   1.412   1.644   1.913
  381SOL    HW2 1162   1.542   1.627   1.816
  382SOL     OW 1163   0.372   1.288   3.352
  382SOL    HW1 1164   0.359   1.381   3.318
  382SOL    HW2 1165   0.288   1.236   3.339
  383SOL     OW 1166   1.614   1.292   3.151
  383SOL    HW1 1167   1.674   1.295   3.231
  383SOL    HW2 1168   1.539   1.356   3.164
  384SOL     OW 1169   1.039   1.098   2.558
  384SOL    HW1 1170   0.969   1.051   2.612
  384SOL    HW2 1171   1.098   1.030   2.515
  385SOL     OW 1172   1.014   0.236   2.833
  385SOL    HW1 1173   1.006   0.200   2.740
  385SOL    HW2 1174   1.012   0.160   2.898
  386SOL     OW 1175   0.590   1.487   2.353
  386SOL    HW1 1176   0.632   1.429   2.283
  386SOL    HW2 1177   0.546   1.566   2.309
  387SOL     OW 1178   1.709   0.385   3.243
  387SOL    HW1 1179   1.782   0.454   3.247
  387SOL    HW2 1180   1.737   0.310   3.184
  388SOL     OW 1181   0.255   1.348   2.152
  388SOL    HW1 1182   0.159   1.349   2.125
  388SOL    HW2 1183   0.267   1.401   2.236
  389SOL     OW 1184   0.105   1.013   3.588
  389SOL    HW1 1185   0.028   0.980   3.642
  389SOL    HW2 1186   0.190   0.983   3.630
  390SOL     OW 1187   0.672   0.203   3.351
  390SOL    HW1 1188   0.762   0.187   3.311
  390SOL    HW2 1189   0.680   0.208   3.450
  391SOL     OW 1190   0.075   0.345   1.895
  391SOL    HW1 1191  -0.017   0.317   1.866
  391SOL    HW2 1192   0.106   0.422   1.839
  392SOL     OW 1193   1.440   0.856   3.260
  392SOL    HW1 1194   1.383   0.908   3.197
  392SOL    HW2 1195   1.536   0.868   3.236
  393SOL     OW 1196   0.072   0.166   2.180
  393SOL    HW1 1197   0.055   0.249   2.126
  393SOL    HW2 1198   0.162   0.129   2.158
  394SOL     OW 1199   1.183   1.335   1.981
  394SOL    HW1 1200   1.084   1.324   1.983
  394SOL    HW2 1201   1.217   1.350   2.074
  395SOL     OW 1202   0.613   0.842   3.293
  395SOL    HW1 1203   0.669   0.923   3.276
  395SOL    HW2 1204   0.672   0.762   3.296
  396SOL     OW 1205   1.493   1.767   2.821
  396SOL    HW1 1206   1.526   1.831   2.752
  396SOL    HW2 1207   1.559   1.761   2.896
  397SOL     OW 1208   0.716   0.565   3.570
  397SOL    HW1 1209   0.735   0.630   3.644
  397SOL    HW2 1210   0.776   0.485   3.579
  398SOL     OW 1211   1.450   1.220   3.495
  398SOL    HW1 1212   1.441   1.210   3.594
  398SOL    HW2 1213   1.546   1.213   3.469
  399SOL     OW 1214   0.390   1.741   3.422
  399SOL    HW1 1215   0.299   1.782   3.420
  399SOL    HW2 1216   0.383   1.647   3.454
  400SOL     OW 1217   1.674   0.883   3.116
  400SOL    HW1 1218   1.647   0.794   3.079
  400SOL    HW2 1219   1.675   0.951   3.043
  401SOL     OW 1220   1.225   0.325   2.311
  401SOL    HW1 1221   1.290   0.251   2.300
  401SOL    HW2 1222   1.245   0.375   2.395
  402SOL     OW 1223   0.594   0.745   2.514
  402SOL    HW1 1224   0.644   0.830   2.495
  402SOL    HW2 1225   0.506   0.747   2.466
  403SOL     OW 1226   1.777   0.342   3.504
  403SOL    HW1 1227   1.760   0.373   3.410
  403SOL    HW2 1228   1.693   0.305   3.542
  404SOL     OW 1229   1.730   0.934   3.379
  404SOL    HW1 1230   1.768   1.025   3.394
  404SOL    HW2 1231   1.722   0.917   3.280
  405SOL     OW 1232   0.859   1.374   1.878
  405SOL    HW1 1233   0.813   1.389   1.966
  405SOL    HW2 1234   0.903   1.459   1.848
  406SOL     OW 1235   0.661   1.790   2.815
  406SOL    HW1 1236   0.615   1.878   2.802
  406SOL    HW2 1237   0.760   1.802   2.808
  407SOL     OW 1238   0.859   0.956   2.723
  407SOL    HW1 1239   0.913   0.887   2.771
  407SOL    HW2 1240   0.827   1.025   2.789
  408SOL     OW 1241   1.083   0.984   1.949
  408SOL    HW1 1242   1.060   1.037   1.867
  408SOL    HW2 1243   1.164   0.928   1.930
  409SOL     OW 1244   1.861   1.569   2.713
  409SOL    HW1 1245   1.790   1.557   2.643
  409SOL    HW2 1246   1.862   1.490   2.773
  410SOL     OW 1247   0.221   1.314   3.706
  410SOL    HW1 1248   0.156   1.241   3.685
  410SOL    HW2 1249   0.225   1.328   3.804
  411SOL     OW 1250   0.079   1.240   2.515
  411SOL    HW1 1251   0.078   1.193   2.603
  411SOL    HW2 1252   0.161   1.212   2.464
  412SOL     OW 1253   0.672   1.391   3.486
  412SOL    HW1 1254   0.594   1.341   3.524
  412SOL    HW2 1255   0.669   1.486   3.517
  413SOL     OW 1256   1.824   0.192   3.089
  413SOL    HW1 1257   1.820   0.102   3.133
  413SOL    HW2 1258   1.827   0.181   2.990
  414SOL     OW 1259   0.428   0.424   2.382
  414SOL    HW1 1260   0.458   0.352   2.320
  414SOL    HW2 1261   0.389   0.384   2.465
  415SOL     OW 1262   1.705   1.487   2.966
  415SOL    HW1 1263   1.612   1.462   2.939
  415SOL    HW2 1264   1.731   1.437   3.048
  416SOL     OW 1265   0.317   0.547   3.142
  416SOL    HW1 1266   0.355   0.488   3.214
  416SOL    HW2 1267   0.357   0.521   3.054
  417SOL     OW 1268   0.812   1.586   2.549
  417SOL    HW1 1269   0.844   1.596   2.455
  417SOL    HW2 1270   0.733   1.524   2.551
  418SOL     OW 1271   1.424   0.214   2.974
  418SOL    HW1 1272   1.476   0.149   3.029
  418SOL    HW2 1273   1.375   0.277   3.035
  419SOL     OW 1274   1.001   0.034   3.016
  419SOL    HW1 1275   0.938  -0.038   2.985
  419SOL    HW2 1276   1.094  -0.002   3.016
  420SOL     OW 1277   0.770   1.330   2.163
  420SOL    HW1 1278   0.724   1.243   2.180
  420SOL    HW2 1279   0.861   1.327   2.204
  421SOL     OW 1280   0.618   1.567   3.146
  421SOL    HW1 1281   0.613   1.649   3.203
  421SOL    HW2 1282   0.707   1.564   3.101
  422SOL     OW 1283   1.352   0.052   2.030
  422SOL    HW1 1284   1.387   0.011   1.946
  422SOL    HW2 1285   1.262   0.014   2.050
  423SOL     OW 1286   1.300   0.453   2.553
  423SOL    HW1 1287   1.241   0.533   2.557
  423SOL    HW2 1288   1.315   0.418   2.646
  424SOL     OW 1289   1.593   0.221   2.744
  424SOL    HW1 1290   1.509   0.220   2.798
  424SOL    HW2 1291   1.595   0.304   2.688
  425SOL     OW 1292   0.039   1.077   2.162
  425SOL    HW1 1293   0.138   1.066   2.153
  425SOL    HW2 1294  -0.001   0.991   2.194
  426SOL     OW 1295   0.875   1.646   2.199
  426SOL    HW1 1296   0.798   1.611   2.145
  426SOL    HW2 1297   0.843   1.717   2.261
  427SOL     OW 1298   0.230   0.628   3.837
  427SOL    HW1 1299   0.137   0.626   3.874
  427SOL    HW2 1300   0.231   0.589   3.745
  428SOL     OW 1301   0.225   0.275   4.720
  428SOL    HW1 1302   0.260   0.258   4.812
  428SOL    HW2 1303   0.137   0.230   4.708
  429SOL     OW 1304   0.019   0.368   4.371
  429SOL    HW1 1305  -0.063   0.411   4.410
  429SOL    HW2 1306  -0.009   0.295   4.308
  430SOL     OW 1307   0.569   1.275   4.889
  430SOL    HW1 1308   0.476   1.268   4.852
  430SOL    HW2 1309   0.580   1.364   4.933
  431SOL     OW 1310   1.555   1.511   4.427
  431SOL    HW1 1311   1.498   1.495   4.508
  431SOL    HW2 1312   1.496   1.521   4.347
  432SOL     OW 1313   1.135   0.703   4.441
  432SOL    HW1 1314   1.192   0.781   4.416
  432SOL    HW2 1315   1.075   0.729   4.517
  433SOL     OW 1316   1.755   0.607   3.955
  433SOL    HW1 1317   1.743   0.594   3.856
  433SOL    HW2 1318   1.725   0.526   4.004
  434SOL     OW 1319   0.768   1.144   4.747
  434SOL    HW1 1320   0.690   1.161   4.807
  434SOL    HW2 1321   0.802   1.231   4.711
  435SOL     OW 1322   0.685   1.012   4.389
  435SOL    HW1 1323   0.754   0.996   4.459
  435SOL    HW2 1324   0.612   1.069   4.427
  436SOL     OW 1325   0.335   1.435   4.785
  436SOL    HW1 1326   0.257   1.404   4.732
  436SOL    HW2 1327   0.393   1.493   4.728
  437SOL     OW 1328   1.603   0.447   4.461
  437SOL    HW1 1329   1.529   0.493   4.411
  437SOL    HW2 1330   1.654   0.515   4.514
  438SOL     OW 1331   0.231   1.713   4.207
  438SOL    HW1 1332   0.265   1.790   4.261
  438SOL    HW2 1333   0.275   1.713   4.117
  439SOL     OW 1334   0.230   1.434   4.262
  439SOL    HW1 1335   0.204   1.530   4.262
  439SOL    HW2 1336   0.159   1.380   4.307
  440SOL     OW 1337   0.240   1.091   4.610
  440SOL    HW1 1338   0.254   1.007   4.662
  440SOL    HW2 1339   0.185   1.155   4.665
  441SOL     OW 1340   0.606   0.964   3.847
  441SOL    HW1 1341   0.613   1.048   3.793
  441SOL    HW2 1342   0.652   0.977   3.935
  442SOL     OW 1343   0.122   0.643   4.287
  442SOL    HW1 1344   0.077   0.555   4.304
  442SOL    HW2 1345   0.121   0.697   4.371
  443SOL     OW 1346   1.842   1.767   4.083
  443SOL    HW1 1347   1.896   1.738   4.163
  443SOL    HW2 1348   1.872   1.857   4.054
  444SOL     OW 1349   0.027   1.596   3.841
  444SOL    HW1 1350   0.008   1.500   3.862
  444SOL    HW2 1351  -0.006   1.654   3.916
  445SOL     OW 1352   1.689   0.922   4.336
  445SOL    HW1 1353   1.784   0.893   4.344
  445SOL    HW2 1354   1.681   0.987   4.261
  446SOL     OW 1355   1.641   1.108   4.156
  446SOL    HW1 1356   1.727   1.110   4.104
  446SOL    HW2 1357   1.655   1.155   4.244
  447SOL     OW 1358   0.613   1.365   4.450
  447SOL    HW1 1359   0.564   1.278   4.459
  447SOL    HW2 1360   0.590   1.408   4.363
  448SOL     OW 1361   0.809   0.004   4.226
  448SOL    HW1 1362   0.849   0.095   4.217
  448SOL    HW2 1363   0.709   0.012   4.232
  449SOL     OW 1364   0.197   0.976   4.988
  449SOL    HW1 1365   0.286   0.931   4.974
  449SOL    HW2 1366   0.124   0.911   4.969
  450SOL     OW 1367   1.525   0.999   3.914
  450SOL    HW1 1368   1.462   0.923   3.927
  450SOL    HW2 1369   1.573   1.017   4.000
  451SOL     OW 1370   1.466   1.417   4.677
  451SOL    HW1 1371   1.407   1.423   4.757
  451SOL    HW2 1372   1.451   1.329   4.631
  452SOL     OW 1373   1.667   1.714   4.296
  452SOL    HW1 1374   1.626   1.691   4.208
  452SOL    HW2 1375   1.649   1.640   4.361
  453SOL     OW 1376   0.598   0.729   3.994
  453SOL    HW1 1377   0.622   0.798   3.926
  453SOL    HW2 1378   0.520   0.762   4.048
  454SOL     OW 1379   1.281   0.345   4.668
  454SOL    HW1 1380   1.195   0.295   4.655
  454SOL    HW2 1381   1.343   0.291   4.724
  455SOL     OW 1382   1.576   1.662   4.031
  455SOL    HW1 1383   1.665   1.708   4.034
  455SOL    HW2 1384   1.555   1.638   3.936
  456SOL     OW 1385   1.041   0.701   4.153
  456SOL    HW1 1386   1.067   0.697   4.249
  456SOL    HW2 1387   0.956   0.650   4.139
  457SOL     OW 1388   0.076   0.811   4.513
  457SOL    HW1 1389   0.175   0.799   4.522
  457SOL    HW2 1390   0.052   0.906   4.534
  458SOL     OW 1391   0.865   0.348   3.919
  458SOL    HW1 1392   0.924   0.411   3.870
  458SOL    HW2 1393   0.884   0.254   3.890
  459SOL     OW 1394   1.362   1.144   4.269
  459SOL    HW1 1395   1.445   1.115   4.221
  459SOL    HW2 1396   1.313   1.211   4.213
  460SOL     OW 1397   0.550   0.196   4.609
  460SOL    HW1 1398   0.545   0.191   4.709
  460SOL    HW2 1399   0.552   0.292   4.580
  461SOL     OW 1400   1.008   1.456   4.201
  461SOL    HW1 1401   0.962   1.528   4.149
  461SOL    HW2 1402   1.004   1.476   4.299
  462SOL     OW 1403   0.351   1.801   4.577
  462SOL    HW1 1404   0.401   1.715   4.583
  462SOL    HW2 1405   0.416   1.878   4.574
  463SOL     OW 1406   1.795   1.066   4.597
  463SOL    HW1 1407   1.733   1.051   4.521
  463SOL    HW2 1408   1.743   1.077   4.682
  464SOL     OW 1409   0.321   0.943   3.966
  464SOL    HW1 1410   0.403   0.982   3.924
  464SOL    HW2 1411   0.294   0.861   3.917
  465SOL     OW 1412   1.458   0.735   4.452
  465SOL    HW1 1413   1.453   0.670   4.527
  465SOL    HW2 1414   1.538   0.794   4.465
  466SOL     OW 1415   1.111   1.776   3.961
  466SOL    HW1 1416   1.051   1.714   4.011
  466SOL    HW2 1417   1.142   1.732   3.876
  467SOL     OW 1418   1.632   1.377   3.805
  467SOL    HW1 1419   1.600   1.471   3.795
  467SOL    HW2 1420   1.556   1.314   3.793
  468SOL     OW 1421   0.464   1.743   4.047
  468SOL    HW1 1422   0.497   1.782   4.133
  468SOL    HW2 1423   0.540   1.736   3.982
  469SOL     OW 1424   1.400   0.107   4.150
  469SOL    HW1 1425   1.376   0.070   4.060
  469SOL    HW2 1426   1.499   0.123   4.154
  470SOL     OW 1427   0.249   1.785   4.965
  470SOL    HW1 1428   0.306   1.720   5.015
  470SOL    HW2 1429   0.233   1.752   4.872
  471SOL     OW 1430   0.940   1.698   4.628
  471SOL    HW1 1431   1.020   1.641   4.649
  471SOL    HW2 1432   0.891   1.658   4.551
  472SOL     OW 1433   0.382   0.700   4.204
  472SOL    HW1 1434   0.427   0.610   4.201
  472SOL    HW2 1435   0.288   0.689   4.237
  473SOL     OW 1436   0.614   0.122   3.841
  473SOL    HW1 1437   0.712   0.100   3.848
  473SOL    HW2 1438   0.583   0.105   3.748
  474SOL     OW 1439   0.803   1.402   4.648
  474SOL    HW1 1440   0.893   1.416   4.606
  474SOL    HW2 1441   0.732   1.404   4.577
  475SOL     OW 1442   0.922   0.503   4.623
  475SOL    HW1 1443   0.897   0.494   4.527
  475SOL    HW2 1444   0.970   0.421   4.654
  476SOL     OW 1445   0.539   0.064   4.236
  476SOL    HW1 1446   0.458   0.065   4.294
  476SOL    HW2 1447   0.542   0.147   4.181
  477SOL     OW 1448   1.434   1.188   3.765
  477SOL    HW1 1449   1.466   1.112   3.822
  477SOL    HW2 1450   1.342   1.215   3.795
  478SOL     OW 1451   0.297   0.035   3.895
  478SOL    HW1 1452   0.346   0.119   3.874
  478SOL    HW2 1453   0.359  -0.030   3.940
  479SOL     OW 1454   0.935   0.236   4.204
  479SOL    HW1 1455   0.887   0.277   4.126
  479SOL    HW2 1456   1.034   0.234   4.185
  480SOL     OW 1457   1.227   1.570   4.517
  480SOL    HW1 1458   1.248   1.644   4.452
  480SOL    HW2 1459   1.295   1.570   4.590
  481SOL     OW 1460   0.459   1.152   4.465
  481SOL    HW1 1461   0.388   1.125   4.530
  481SOL    HW2 1462   0.433   1.124   4.372
  482SOL     OW 1463   1.271   1.797   4.315
  482SOL    HW1 1464   1.315   1.861   4.251
  482SOL    HW2 1465   1.221   1.849   4.385
  483SOL     OW 1466   1.032   0.549   3.740
  483SOL    HW1 1467   0.991   0.631   3.701
  483SOL    HW2 1468   1.096   0.575   3.813
  484SOL     OW 1469   0.866   0.454   4.366
  484SOL    HW1 1470   0.834   0.526   4.304
  484SOL    HW2 1471   0.890   0.373   4.313
  485SOL     OW 1472   1.017   0.039   4.477
  485SOL    HW1 1473   0.945   0.044   4.408
  485SOL    HW2 1474   0.993  -0.030   4.546
  486SOL     OW 1475   1.429   1.173   4.591
  486SOL    HW1 1476   1.374   1.089   4.584
  486SOL    HW2 1477   1.455   1.202   4.499
  487SOL     OW 1478   1.466   0.590   4.716
  487SOL    HW1 1479   1.436   0.495   4.723
  487SOL    HW2 1480   1.539   0.606   4.782
  488SOL     OW 1481   1.857   0.833   4.101
  488SOL    HW1 1482   1.899   0.769   4.165
  488SOL    HW2 1483   1.819   0.782   4.023
  489SOL     OW 1484   0.488   1.385   3.898
  489SOL    HW1 1485   0.401   1.370   3.945
  489SOL    HW2 1486   0.471   1.411   3.803
  490SOL     OW 1487   1.664   1.280   4.381
  490SOL    HW1 1488   1.763   1.288   4.395
  490SOL    HW2 1489   1.619   1.364   4.412
  491SOL     OW 1490   1.390   0.575   3.802
  491SOL    HW1 1491   1.336   0.554   3.883
  491SOL    HW2 1492   1.481   0.534   3.811
  492SOL     OW 1493   0.527   0.256   4.052
  492SOL    HW1 1494   0.554   0.197   3.977
  492SOL    HW2 1495   0.527   0.351   4.021
  493SOL     OW 1496   1.111   1.195   4.824
  493SOL    HW1 1497   1.071   1.239   4.905
  493SOL    HW2 1498   1.070   1.232   4.741
  494SOL     OW 1499   1.638   1.099   4.803
  494SOL    HW1 1500   1.643   1.180   4.862
  494SOL    HW2 1501   1.552   1.101   4.752
  495SOL     OW 1502   0.705   1.050   4.092
  495SOL    HW1 1503   0.691   1.057   4.191
  495SOL    HW2 1504   0.789   0.999   4.074
  496SOL     OW 1505   0.410   0.813   4.975
  496SOL    HW1 1506   0.496   0.825   5.025
  496SOL    HW2 1507   0.368   0.726   5.002
  497SOL     OW 1508   0.367   1.100   4.225
  497SOL    HW1 1509   0.360   1.183   4.169
  497SOL    HW2 1510   0.371   1.020   4.165
  498SOL     OW 1511   0.566   0.537   4.589
  498SOL    HW1 1512   0.578   0.603   4.515
  498SOL    HW2 1513   0.612   0.571   4.672
  499SOL     OW 1514   1.252   1.348   4.112
  499SOL    HW1 1515   1.302   1.425   4.152
  499SOL    HW2 1516   1.157   1.350   4.144
  500SOL     OW 1517   1.272   1.445   4.866
  500SOL    HW1 1518   1.319   1.458   4.953
  500SOL    HW2 1519   1.206   1.371   4.875
  501SOL     OW 1520   1.582   0.639   4.196
  501SOL    HW1 1521   1.551   0.700   4.269
  501SOL    HW2 1522   1.632   0.691   4.127
  502SOL     OW 1523   0.573   0.870   4.753
  502SOL    HW1 1524   0.617   0.959   4.744
  502SOL    HW2 1525   0.510   0.870   4.830
  503SOL     OW 1526   1.360   0.862   4.769
  503SOL    HW1 1527   1.285   0.862   4.703
  503SOL    HW2 1528   1.397   0.770   4.778
  504SOL     OW 1529   1.209   0.525   3.999
  504SOL    HW1 1530   1.222   0.441   4.053
  504SOL    HW2 1531   1.180   0.599   4.059
  505SOL     OW 1532   0.307   0.213   4.955
  505SOL    HW1 1533   0.284   0.250   5.045
  505SOL    HW2 1534   0.277   0.118   4.949
  506SOL     OW 1535   0.732   0.634   4.788
  506SOL    HW1 1536   0.791   0.608   4.712
  506SOL    HW2 1537   0.704   0.730   4.777
  507SOL     OW 1538   0.307   0.063   4.342
  507SOL    HW1 1539   0.296   0.157   4.375
  507SOL    HW2 1540   0.302   0.000   4.419
  508SOL     OW 1541   1.622   0.367   4.098
  508SOL    HW1 1542   1.624   0.291   4.162
  508SOL    HW2 1543   1.574   0.444   4.138
  509SOL     OW 1544   1.023   0.766   4.690
  509SOL    HW1 1545   1.038   0.787   4.786
  509SOL    HW2 1546   0.993   0.671   4.681
  510SOL     OW 1547   1.540   0.274   3.849
  510SOL    HW1 1548   1.479   0.199   3.872
  510SOL    HW2 1549   1.562   0.326   3.932
  511SOL     OW 1550   1.303   0.838   3.766
  511SOL    HW1 1551   1.337   0.745   3.781
  511SOL    HW2 1552   1.321   0.865   3.671
  512SOL     OW 1553   1.068   1.333   4.573
  512SOL    HW1 1554   1.075   1.249   4.518
  512SOL    HW2 1555   1.130   1.402   4.537
  513SOL     OW 1556   0.319   0.810   4.673
  513SOL    HW1 1557   0.412   0.846   4.678
  513SOL    HW2 1558   0.313   0.725   4.725
  514SOL     OW 1559   0.339   0.509   4.730
  514SOL    HW1 1560   0.287   0.426   4.713
  514SOL    HW2 1561   0.416   0.514   4.666
  515SOL     OW 1562   1.160   0.207   5.201
  515SOL    HW1 1563   1.160   0.271   5.278
  515SOL    HW2 1564   1.188   0.255   5.118
  516SOL     OW 1565   0.008   1.326   3.924
  516SOL    HW1 1566  -0.085   1.347   3.893
  516SOL    HW2 1567   0.018   1.227   3.937
  517SOL     OW 1568   0.088   1.801   4.651
  517SOL    HW1 1569   0.046   1.715   4.624
  517SOL    HW2 1570   0.182   1.804   4.617
  518SOL     OW 1571   0.504   1.568   4.634
  518SOL    HW1 1572   0.570   1.642   4.643
  518SOL    HW2 1573   0.548   1.489   4.592
  519SOL     OW 1574   1.002   0.796   4.962
  519SOL    HW1 1575   1.043   0.764   5.048
  519SOL    HW2 1576   0.906   0.769   4.959
  520SOL     OW 1577   0.040   0.544   4.838
  520SOL    HW1 1578   0.125   0.511   4.797
  520SOL    HW2 1579   0.053   0.559   4.936
  521SOL     OW 1580   0.815   0.572   4.049
  521SOL    HW1 1581   0.822   0.483   4.003
  521SOL    HW2 1582   0.721   0.606   4.041
  522SOL     OW 1583   1.657   0.604   4.930
  522SOL    HW1 1584   1.619   0.535   4.992
  522SOL    HW2 1585   1.739   0.568   4.886
  523SOL     OW 1586   0.671   0.464   4.993
  523SOL    HW1 1587   0.637   0.375   4.963
  523SOL    HW2 1588   0.697   0.518   4.913
  524SOL     OW 1589   0.473   0.500   3.915
  524SOL    HW1 1590   0.534   0.580   3.919
  524SOL    HW2 1591   0.378   0.531   3.922
  525SOL     OW 1592   1.302   0.855   4.033
  525SOL    HW1 1593   1.216   0.824   4.075
  525SOL    HW2 1594   1.298   0.841   3.934
  526SOL     OW 1595   1.759   1.747   4.878
  526SOL    HW1 1596   1.820   1.777   4.805
  526SOL    HW2 1597   1.721   1.658   4.856
  527SOL     OW 1598   0.083   1.258   4.746
  527SOL    HW1 1599   0.078   1.257   4.846
  527SOL    HW2 1600   0.000   1.217   4.708
  528SOL     OW 1601   1.726   0.135   4.247
  528SOL    HW1 1602   1.799   0.118   4.180
  528SOL    HW2 1603   1.695   0.048   4.285
  529SOL     OW 1604   1.388   1.573   4.201
  529SOL    HW1 1605   1.455   1.585   4.127
  529SOL    HW2 1606   1.348   1.662   4.224
  530SOL     OW 1607   1.280   0.927   4.396
  530SOL    HW1 1608   1.340   0.846   4.398
  530SOL    HW2 1609   1.320   0.996   4.336
  531SOL     OW 1610   0.672   1.616   3.878
  531SOL    HW1 1611   0.681   1.626   3.779
  531SOL    HW2 1612   0.632   1.527   3.899
  532SOL     OW 1613   1.841   0.175   4.687
  532SOL    HW1 1614   1.880   0.090   4.651
  532SOL    HW2 1615   1.743   0.177   4.668
  533SOL     OW 1616   0.263   0.326   4.444
  533SOL    HW1 1617   0.184   0.377   4.410
  533SOL    HW2 1618   0.254   0.311   4.542
  534SOL     OW 1619   1.194   1.612   3.755
  534SOL    HW1 1620   1.200   1.519   3.792
  534SOL    HW2 1621   1.135   1.612   3.675
  535SOL     OW 1622   0.822   1.002   5.096
  535SOL    HW1 1623   0.862   1.001   5.004
  535SOL    HW2 1624   0.832   1.094   5.136
  536SOL     OW 1625   0.916   0.910   4.015
  536SOL    HW1 1626   0.979   0.948   3.947
  536SOL    HW2 1627   0.956   0.827   4.054
  537SOL     OW 1628   1.504   1.607   3.768
  537SOL    HW1 1629   1.412   1.644   3.775
  537SOL    HW2 1630   1.542   1.627   3.678
  538SOL     OW 1631   1.039   1.098   4.420
  538SOL    HW1 1632   0.969   1.051   4.474
  538SOL    HW2 1633   1.098   1.030   4.377
  539SOL     OW 1634   1.014   0.236   4.695
  539SOL    HW1 1635   1.006   0.200   4.602
  539SOL    HW2 1636   1.012   0.160   4.760
  540SOL     OW 1637   0.590   1.487   4.215
  540SOL    HW1 1638   0.632   1.429   4.145
  540SOL    HW2 1639   0.546   1.566   4.171
  541SOL     OW 1640   1.709   0.385   5.105
  541SOL    HW1 1641   1.782   0.454   5.109
  541SOL    HW2 1642   1.737   0.310   5.046
  542SOL     OW 1643   0.255   1.348   4.014
  542SOL    HW1 1644   0.159   1.349   3.987
  542SOL    HW2 1645   0.267   1.401   4.098
  543SOL     OW 1646   0.075   0.345   3.757
  543SOL    HW1 1647  -0.017   0.317   3.728
  543SOL    HW2 1648   0.106   0.422   3.701
  544SOL     OW 1649   0.072   0.166   4.042
  544SOL    HW1 1650   0.055   0.249   3.988
  544SOL    HW2 1651   0.162   0.129   4.020
  545SOL     OW 1652   1.183   1.335   3.843
  545SOL    HW1 1653   1.084   1.324   3.845
  545SOL    HW2 1654   1.217   1.350   3.936
  546SOL     OW 1655   1.493   1.767   4.683
  546SOL    HW1 1656   1.526   1.831   4.614
  546SOL    HW2 1657   1.559   1.761   4.758
  547SOL     OW 1658   1.674   0.883   4.978
  547SOL    HW1 1659   1.647   0.794   4.941
  547SOL    HW2 1660   1.675   0.951   4.905
  548SOL     OW 1661   1.225   0.325   4.173
  548SOL    HW1 1662   1.290   0.251   4.162
  548SOL    HW2 1663   1.245   0.375   4.257
  549SOL     OW 1664   0.594   0.745   4.376
  549SOL    HW1 1665   0.644   0.830   4.357
  549SOL    HW2 1666   0.506   0.747   4.328
  550SOL     OW 1667   1.730   0.934   5.241
  550SOL    HW1 1668   1.768   1.025   5.256
  550SOL    HW2 1669   1.722   0.917   5.142
  551SOL     OW 1670   0.859   1.374   3.740
  551SOL    HW1 1671   0.813   1.389   3.828
  551SOL    HW2 1672   0.903   1.459   3.710
  552SOL     OW 1673   0.661   1.790   4.677
  552SOL    HW1 1674   0.615   1.878   4.664
  552SOL    HW2 1675   0.760   1.802   4.670
  553SOL     OW 1676   0.859   0.956   4.585
  553SOL    HW1 1677   0.913   0.887   4.633
  553SOL    HW2 1678   0.827   1.025   4.651
  554SOL     OW 1679   1.083   0.984   3.811
  554SOL    HW1 1680   1.060   1.037   3.729
  554SOL    HW2 1681   1.164   0.928   3.792
  555SOL     OW 1682   1.861   1.569   4.575
  555SOL    HW1 1683   1.790   1.557   4.505
  555SOL    HW2 1684   1.862   1.490   4.635
  556SOL     OW 1685   0.079   1.240   4.377
  556SOL    HW1 1686   0.078   1.193   4.465
  556SOL    HW2 1687   0.161   1.212   4.326
  557SOL     OW 1688   1.824   0.192   4.951
  557SOL    HW1 1689   1.820   0.102   4.995
  557SOL    HW2 1690   1.827   0.181   4.852
  558SOL     OW 1691   0.428   0.424   4.244
  558SOL    HW1 1692   0.458   0.352   4.182
  558SOL    HW2 1693   0.389   0.384   4.327
  559SOL     OW 1694   1.705   1.487   4.828
  559SOL    HW1 1695   1.612   1.462   4.801
  559SOL    HW2 1696   1.731   1.437   4.910
  560SOL     OW 1697   0.812   1.586   4.411
  560SOL    HW1 1698   0.844   1.596   4.317
  560SOL    HW2 1699   0.733   1.524   4.413
  561SOL     OW 1700   1.424   0.214   4.836
  561SOL    HW1 1701   1.476   0.149   4.891
  561SOL    HW2 1702   1.375   0.277   4.897
  562SOL     OW 1703   1.001   0.034   4.878
  562SOL    HW1 1704   0.938  -0.038   4.847
  562SOL    HW2 1705   1.094  -0.002   4.878
  563SOL     OW 1706   0.770   1.330   4.025
  563SOL    HW1 1707   0.724   1.243   4.042
  563SOL    HW2 1708   0.861   1.327   4.066
  564SOL     OW 1709   1.352   0.052   3.892
  564SOL    HW1 1710   1.387   0.011   3.808
  564SOL    HW2 1711   1.262   0.014   3.912
  565SOL     OW 1712   1.300   0.453   4.415
  565SOL    HW1 1713   1.241   0.533   4.419
  565SOL    HW2 1714   1.315   0.418   4.508
  566SOL     OW 1715   1.593   0.221   4.606
  566SOL    HW1 1716   1.509   0.220   4.660
  566SOL    HW2 1717   1.595   0.304   4.550
  567SOL     OW 1718   0.039   1.077   4.024
  567SOL    HW1 1719   0.138   1.066   4.015
  567SOL    HW2 1720  -0.001   0.991   4.056
  568SOL     OW 1721   0.875   1.646   4.061
  568SOL    HW1 1722   0.798   1.611   4.007
  568SOL    HW2 1723   0.843   1.717   4.123
  569SOL     OW 1724   0.230   2.490   0.113
  569SOL    HW1 1725   0.137   2.488   0.150
  569SOL    HW2 1726   0.231   2.451   0.021
  570SOL     OW 1727   0.225   2.137   0.996
  570SOL    HW1 1728   0.260   2.120   1.088
  570SOL    HW2 1729   0.137   2.092   0.984
  571SOL     OW 1730   0.019   2.230   0.647
  571SOL    HW1 1731  -0.063   2.273   0.686
  571SOL    HW2 1732  -0.009   2.157   0.584
  572SOL     OW 1733   0.569   3.137   1.165
  572SOL    HW1 1734   0.476   3.130   1.128
  572SOL    HW2 1735   0.580   3.226   1.209
  573SOL     OW 1736   1.555   3.373   0.703
  573SOL    HW1 1737   1.498   3.357   0.784
  573SOL    HW2 1738   1.496   3.383   0.623
  574SOL     OW 1739   1.135   2.565   0.717
  574SOL    HW1 1740   1.192   2.643   0.692
  574SOL    HW2 1741   1.075   2.591   0.793
  575SOL     OW 1742   1.755   2.469   0.231
  575SOL    HW1 1743   1.743   2.456   0.132
  575SOL    HW2 1744   1.725   2.388   0.280
  576SOL     OW 1745   0.768   3.006   1.023
  576SOL    HW1 1746   0.690   3.023   1.083
  576SOL    HW2 1747   0.802   3.093   0.987
  577SOL     OW 1748   0.850   2.660   1.823
  577SOL    HW1 1749   0.846   2.736   1.888
  577SOL    HW2 1750   0.872   2.696   1.732
  578SOL     OW 1751   0.685   2.874   0.665
  578SOL    HW1 1752   0.754   2.858   0.735
  578SOL    HW2 1753   0.612   2.931   0.703
  579SOL     OW 1754   0.686   3.023   1.803
  579SOL    HW1 1755   0.746   3.102   1.817
  579SOL    HW2 1756   0.600   3.054   1.762
  580SOL     OW 1757   0.335   3.297   1.061
  580SOL    HW1 1758   0.257   3.266   1.008
  580SOL    HW2 1759   0.393   3.355   1.004
  581SOL     OW 1760   1.460   3.367   1.339
  581SOL    HW1 1761   1.484   3.461   1.365
  581SOL    HW2 1762   1.444   3.313   1.421
  582SOL     OW 1763   0.438   2.254   1.499
  582SOL    HW1 1764   0.520   2.198   1.508
  582SOL    HW2 1765   0.357   2.196   1.503
  583SOL     OW 1766   1.603   2.309   0.737
  583SOL    HW1 1767   1.529   2.355   0.687
  583SOL    HW2 1768   1.654   2.377   0.790
  584SOL     OW 1769   0.231   3.575   0.483
  584SOL    HW1 1770   0.265   3.652   0.537
  584SOL    HW2 1771   0.275   3.575   0.393
  585SOL     OW 1772   1.127   3.203   1.690
  585SOL    HW1 1773   1.174   3.203   1.778
  585SOL    HW2 1774   1.079   3.116   1.679
  586SOL     OW 1775   0.230   3.296   0.538
  586SOL    HW1 1776   0.204   3.392   0.538
  586SOL    HW2 1777   0.159   3.242   0.583
  587SOL     OW 1778   0.240   2.953   0.886
  587SOL    HW1 1779   0.254   2.869   0.938
  587SOL    HW2 1780   0.185   3.017   0.941
  588SOL     OW 1781   0.620   3.648   1.439
  588SOL    HW1 1782   0.528   3.631   1.474
  588SOL    HW2 1783   0.648   3.740   1.465
  589SOL     OW 1784   0.606   2.826   0.123
  589SOL    HW1 1785   0.613   2.910   0.069
  589SOL    HW2 1786   0.652   2.839   0.211
  590SOL     OW 1787   1.594   1.976   1.480
  590SOL    HW1 1788   1.576   2.043   1.408
  590SOL    HW2 1789   1.591   2.022   1.569
  591SOL     OW 1790   0.122   2.505   0.563
  591SOL    HW1 1791   0.077   2.417   0.580
  591SOL    HW2 1792   0.121   2.559   0.647
  592SOL     OW 1793   1.842   3.629   0.359
  592SOL    HW1 1794   1.896   3.600   0.439
  592SOL    HW2 1795   1.872   3.719   0.330
  593SOL     OW 1796   0.027   3.458   0.117
  593SOL    HW1 1797   0.008   3.362   0.138
  593SOL    HW2 1798  -0.006   3.516   0.192
  594SOL     OW 1799   1.689   2.784   0.612
  594SOL    HW1 1800   1.784   2.755   0.620
  594SOL    HW2 1801   1.681   2.849   0.537
  595SOL     OW 1802   1.641   2.970   0.432
  595SOL    HW1 1803   1.727   2.972   0.380
  595SOL    HW2 1804   1.655   3.017   0.520
  596SOL     OW 1805   0.113   2.599   1.597
  596SOL    HW1 1806   0.201   2.586   1.642
  596SOL    HW2 1807   0.100   2.696   1.575
  597SOL     OW 1808   0.613   3.227   0.726
  597SOL    HW1 1809   0.564   3.140   0.735
  597SOL    HW2 1810   0.590   3.270   0.639
  598SOL     OW 1811   1.293   3.090   1.423
  598SOL    HW1 1812   1.330   3.017   1.365
  598SOL    HW2 1813   1.345   3.095   1.508
  599SOL     OW 1814   0.809   1.866   0.502
  599SOL    HW1 1815   0.849   1.957   0.493
  599SOL    HW2 1816   0.709   1.874   0.508
  600SOL     OW 1817   0.197   2.838   1.264
  600SOL    HW1 1818   0.286   2.793   1.250
  600SOL    HW2 1819   0.124   2.773   1.245
  601SOL     OW 1820   1.525   2.861   0.190
  601SOL    HW1 1821   1.462   2.785   0.203
  601SOL    HW2 1822   1.573   2.879   0.276
  602SOL     OW 1823   1.187   3.654   1.616
  602SOL    HW1 1824   1.211   3.714   1.540
  602SOL    HW2 1825   1.194   3.559   1.586
  603SOL     OW 1826   0.317   2.113   1.801
  603SOL    HW1 1827   0.388   2.184   1.807
  603SOL    HW2 1828   0.229   2.152   1.829
  604SOL     OW 1829   1.466   3.279   0.953
  604SOL    HW1 1830   1.407   3.285   1.033
  604SOL    HW2 1831   1.451   3.191   0.907
  605SOL     OW 1832   1.667   3.576   0.572
  605SOL    HW1 1833   1.626   3.553   0.484
  605SOL    HW2 1834   1.649   3.502   0.637
  606SOL     OW 1835   0.598   2.591   0.270
  606SOL    HW1 1836   0.622   2.660   0.202
  606SOL    HW2 1837   0.520   2.624   0.324
  607SOL     OW 1838   1.281   2.207   0.944
  607SOL    HW1 1839   1.195   2.157   0.931
  607SOL    HW2 1840   1.343   2.153   1.000
  608SOL     OW 1841   1.576   3.524   0.307
  608SOL    HW1 1842   1.665   3.570   0.310
  608SOL    HW2 1843   1.555   3.500   0.212
  609SOL     OW 1844   0.807   2.467   1.465
  609SOL    HW1 1845   0.760   2.464   1.554
  609SOL    HW2 1846   0.756   2.412   1.399
  610SOL     OW 1847   1.394   2.331   1.674
  610SOL    HW1 1848   1.374   2.374   1.762
  610SOL    HW2 1849   1.472   2.269   1.683
  611SOL     OW 1850   0.973   2.752   1.572
  611SOL    HW1 1851   1.019   2.668   1.543
  611SOL    HW2 1852   0.917   2.786   1.497
  612SOL     OW 1853   0.991   2.272   1.242
  612SOL    HW1 1854   0.914   2.306   1.296
  612SOL    HW2 1855   0.957   2.221   1.163
  613SOL     OW 1856   1.041   2.563   0.429
  613SOL    HW1 1857   1.067   2.559   0.525
  613SOL    HW2 1858   0.956   2.512   0.415
  614SOL     OW 1859   0.076   2.673   0.789
  614SOL    HW1 1860   0.175   2.661   0.798
  614SOL    HW2 1861   0.052   2.768   0.810
  615SOL     OW 1862   0.130   3.683   1.571
  615SOL    HW1 1863   0.120   3.668   1.670
  615SOL    HW2 1864   0.044   3.719   1.535
  616SOL     OW 1865   0.865   2.210   0.195
  616SOL    HW1 1866   0.924   2.273   0.146
  616SOL    HW2 1867   0.884   2.116   0.166
  617SOL     OW 1868   1.719   2.447   1.831
  617SOL    HW1 1869   1.693   2.536   1.795
  617SOL    HW2 1870   1.717   2.379   1.758
  618SOL     OW 1871   1.362   3.006   0.545
  618SOL    HW1 1872   1.445   2.977   0.497
  618SOL    HW2 1873   1.313   3.073   0.489
  619SOL     OW 1874   0.550   2.058   0.885
  619SOL    HW1 1875   0.545   2.053   0.985
  619SOL    HW2 1876   0.552   2.154   0.856
  620SOL     OW 1877   1.008   3.318   0.477
  620SOL    HW1 1878   0.962   3.390   0.425
  620SOL    HW2 1879   1.004   3.338   0.575
  621SOL     OW 1880   0.351   3.663   0.853
  621SOL    HW1 1881   0.401   3.577   0.859
  621SOL    HW2 1882   0.416   3.740   0.850
  622SOL     OW 1883   1.795   2.928   0.873
  622SOL    HW1 1884   1.733   2.913   0.797
  622SOL    HW2 1885   1.743   2.939   0.958
  623SOL     OW 1886   1.227   3.412   1.506
  623SOL    HW1 1887   1.233   3.335   1.570
  623SOL    HW2 1888   1.175   3.386   1.426
  624SOL     OW 1889   0.321   2.805   0.242
  624SOL    HW1 1890   0.403   2.844   0.200
  624SOL    HW2 1891   0.294   2.723   0.193
  625SOL     OW 1892   1.458   2.597   0.728
  625SOL    HW1 1893   1.453   2.532   0.803
  625SOL    HW2 1894   1.538   2.656   0.741
  626SOL     OW 1895   0.461   3.128   1.727
  626SOL    HW1 1896   0.411   3.129   1.641
  626SOL    HW2 1897   0.398   3.110   1.803
  627SOL     OW 1898   1.111   3.638   0.237
  627SOL    HW1 1899   1.051   3.576   0.287
  627SOL    HW2 1900   1.142   3.594   0.152
  628SOL     OW 1901   0.202   2.147   1.498
  628SOL    HW1 1902   0.122   2.207   1.485
  628SOL    HW2 1903   0.192   2.098   1.584
  629SOL     OW 1904   1.632   3.239   0.081
  629SOL    HW1 1905   1.600   3.333   0.071
  629SOL    HW2 1906   1.556   3.176   0.069
  630SOL     OW 1907   0.464   3.605   0.323
  630SOL    HW1 1908   0.497   3.644   0.409
  630SOL    HW2 1909   0.540   3.598   0.258
  631SOL     OW 1910   1.400   1.969   0.426
  631SOL    HW1 1911   1.376   1.932   0.336
  631SOL    HW2 1912   1.499   1.985   0.430
  632SOL     OW 1913   0.249   3.647   1.241
  632SOL    HW1 1914   0.306   3.582   1.291
  632SOL    HW2 1915   0.233   3.614   1.148
  633SOL     OW 1916   0.940   3.560   0.904
  633SOL    HW1 1917   1.020   3.503   0.925
  633SOL    HW2 1918   0.891   3.520   0.827
  634SOL     OW 1919   0.382   2.562   0.480
  634SOL    HW1 1920   0.427   2.472   0.477
  634SOL    HW2 1921   0.288   2.551   0.513
  635SOL     OW 1922   1.547   2.084   1.729
  635SOL    HW1 1923   1.542   2.121   1.821
  635SOL    HW2 1924   1.475   2.015   1.717
  636SOL     OW 1925   0.614   1.984   0.117
  636SOL    HW1 1926   0.712   1.962   0.124
  636SOL    HW2 1927   0.583   1.967   0.024
  637SOL     OW 1928   0.781   2.126   1.749
  637SOL    HW1 1929   0.848   2.065   1.792
  637SOL    HW2 1930   0.708   2.145   1.814
  638SOL     OW 1931   0.888   3.376   1.195
  638SOL    HW1 1932   0.865   3.351   1.101
  638SOL    HW2 1933   0.949   3.307   1.234
  639SOL     OW 1934   1.351   2.452   1.433
  639SOL    HW1 1935   1.379   2.409   1.518
  639SOL    HW2 1936   1.376   2.548   1.434
  640SOL     OW 1937   0.803   3.264   0.924
  640SOL    HW1 1938   0.893   3.278   0.882
  640SOL    HW2 1939   0.732   3.266   0.853
  641SOL     OW 1940   0.922   2.365   0.899
  641SOL    HW1 1941   0.897   2.356   0.803
  641SOL    HW2 1942   0.970   2.283   0.930
  642SOL     OW 1943   0.539   1.926   0.512
  642SOL    HW1 1944   0.458   1.927   0.570
  642SOL    HW2 1945   0.542   2.009   0.457
  643SOL     OW 1946   1.434   3.050   0.041
  643SOL    HW1 1947   1.466   2.974   0.098
  643SOL    HW2 1948   1.342   3.077   0.071
  644SOL     OW 1949   0.297   1.897   0.171
  644SOL    HW1 1950   0.346   1.981   0.150
  644SOL    HW2 1951   0.359   1.832   0.216
  645SOL     OW 1952   0.935   2.098   0.480
  645SOL    HW1 1953   0.887   2.139   0.402
  645SOL    HW2 1954   1.034   2.096   0.461
  646SOL     OW 1955   1.076   2.545   1.464
  646SOL    HW1 1956   0.996   2.484   1.467
  646SOL    HW2 1957   1.157   2.492   1.440
  647SOL     OW 1958   1.227   3.432   0.793
  647SOL    HW1 1959   1.248   3.506   0.728
  647SOL    HW2 1960   1.295   3.432   0.866
  648SOL     OW 1961   0.459   3.014   0.741
  648SOL    HW1 1962   0.388   2.987   0.806
  648SOL    HW2 1963   0.433   2.986   0.648
  649SOL     OW 1964   1.271   3.659   0.591
  649SOL    HW1 1965   1.315   3.723   0.527
  649SOL    HW2 1966   1.221   3.711   0.661
  650SOL     OW 1967   1.032   2.411   0.016
  650SOL    HW1 1968   0.991   2.493  -0.023
  650SOL    HW2 1969   1.096   2.437   0.089
  651SOL     OW 1970   0.078   2.418   1.386
  651SOL    HW1 1971   0.170   2.417   1.345
  651SOL    HW2 1972   0.072   2.492   1.453
  652SOL     OW 1973   0.561   2.084   1.147
  652SOL    HW1 1974   0.599   2.000   1.184
  652SOL    HW2 1975   0.473   2.103   1.191
  653SOL     OW 1976   0.866   2.316   0.642
  653SOL    HW1 1977   0.834   2.388   0.580
  653SOL    HW2 1978   0.890   2.235   0.589
  654SOL     OW 1979   1.017   1.901   0.753
  654SOL    HW1 1980   0.945   1.906   0.684
  654SOL    HW2 1981   0.993   1.832   0.822
  655SOL     OW 1982   1.429   3.035   0.867
  655SOL    HW1 1983   1.374   2.951   0.860
  655SOL    HW2 1984   1.455   3.064   0.775
  656SOL     OW 1985   1.466   2.452   0.992
  656SOL    HW1 1986   1.436   2.357   0.999
  656SOL    HW2 1987   1.539   2.468   1.058
  657SOL     OW 1988   1.857   2.695   0.377
  657SOL    HW1 1989   1.899   2.631   0.441
  657SOL    HW2 1990   1.819   2.644   0.299
  658SOL     OW 1991   0.488   3.247   0.174
  658SOL    HW1 1992   0.401   3.232   0.221
  658SOL    HW2 1993   0.471   3.273   0.079
  659SOL     OW 1994   1.664   3.142   0.657
  659SOL    HW1 1995   1.763   3.150   0.671
  659SOL    HW2 1996   1.619   3.226   0.688
  660SOL     OW 1997   1.390   2.437   0.078
  660SOL    HW1 1998   1.336   2.416   0.159
  660SOL    HW2 1999   1.481   2.396   0.087
  661SOL     OW 2000   0.527   2.118   0.328
  661SOL    HW1 2001   0.554   2.059   0.253
  661SOL    HW2 2002   0.527   2.213   0.297
  662SOL     OW 2003   1.754   3.085   1.588
  662SOL    HW1 2004   1.845   3.046   1.575
  662SOL    HW2 2005   1.762   3.181   1.612
  663SOL     OW 2006   1.064   3.209   1.340
  663SOL    HW1 2007   0.984   3.186   1.395
  663SOL    HW2 2008   1.147   3.183   1.389
  664SOL     OW 2009   1.592   3.491   1.625
  664SOL    HW1 2010   1.619   3.525   1.535
  664SOL    HW2 2011   1.671   3.453   1.671
  665SOL     OW 2012   1.111   3.057   1.100
  665SOL    HW1 2013   1.071   3.101   1.181
  665SOL    HW2 2014   1.070   3.094   1.017
  666SOL     OW 2015   1.638   2.961   1.079
  666SOL    HW1 2016   1.643   3.042   1.138
  666SOL    HW2 2017   1.552   2.963   1.028
  667SOL     OW 2018   0.915   1.951   1.402
  667SOL    HW1 2019   0.940   1.931   1.307
  667SOL    HW2 2020   0.987   2.007   1.444
  668SOL     OW 2021   0.980   2.978   1.719
  668SOL    HW1 2022   0.881   2.984   1.729
  668SOL    HW2 2023   1.003   2.898   1.663
  669SOL     OW 2024   0.705   2.912   0.368
  669SOL    HW1 2025   0.691   2.919   0.467
  669SOL    HW2 2026   0.789   2.861   0.350
  670SOL     OW 2027   0.410   2.675   1.251
  670SOL    HW1 2028   0.496   2.687   1.301
  670SOL    HW2 2029   0.368   2.588   1.278
  671SOL     OW 2030   1.274   2.248   1.262
  671SOL    HW1 2031   1.295   2.322   1.326
  671SOL    HW2 2032   1.185   2.265   1.219
  672SOL     OW 2033   0.064   3.426   1.331
  672SOL    HW1 2034   0.018   3.508   1.297
  672SOL    HW2 2035   0.162   3.445   1.340
  673SOL     OW 2036   0.367   2.962   0.501
  673SOL    HW1 2037   0.360   3.045   0.445
  673SOL    HW2 2038   0.371   2.882   0.441
  674SOL     OW 2039   0.566   2.399   0.865
  674SOL    HW1 2040   0.578   2.465   0.791
  674SOL    HW2 2041   0.612   2.433   0.948
  675SOL     OW 2042   1.252   3.210   0.388
  675SOL    HW1 2043   1.302   3.287   0.428
  675SOL    HW2 2044   1.157   3.212   0.420
  676SOL     OW 2045   1.272   3.307   1.142
  676SOL    HW1 2046   1.319   3.320   1.229
  676SOL    HW2 2047   1.206   3.233   1.151
  677SOL     OW 2048   1.582   2.501   0.472
  677SOL    HW1 2049   1.551   2.562   0.545
  677SOL    HW2 2050   1.632   2.553   0.403
  678SOL     OW 2051   0.354   3.372   1.329
  678SOL    HW1 2052   0.333   3.328   1.242
  678SOL    HW2 2053   0.451   3.398   1.332
  679SOL     OW 2054   0.402   2.613   1.598
  679SOL    HW1 2055   0.470   2.668   1.551
  679SOL    HW2 2056   0.442   2.525   1.625
  680SOL     OW 2057   1.587   2.641   1.670
  680SOL    HW1 2058   1.495   2.679   1.665
  680SOL    HW2 2059   1.647   2.688   1.605
  681SOL     OW 2060   1.013   1.967   1.770
  681SOL    HW1 2061   1.019   2.052   1.718
  681SOL    HW2 2062   1.045   1.891   1.713
  682SOL     OW 2063   0.504   1.912   1.740
  682SOL    HW1 2064   0.462   1.855   1.670
  682SOL    HW2 2065   0.438   1.981   1.772
  683SOL     OW 2066   0.573   2.732   1.029
  683SOL    HW1 2067   0.617   2.821   1.020
  683SOL    HW2 2068   0.510   2.732   1.106
  684SOL     OW 2069   1.360   2.724   1.045
  684SOL    HW1 2070   1.285   2.724   0.979
  684SOL    HW2 2071   1.397   2.632   1.054
  685SOL     OW 2072   1.209   2.387   0.275
  685SOL    HW1 2073   1.222   2.303   0.329
  685SOL    HW2 2074   1.180   2.461   0.335
  686SOL     OW 2075   0.307   2.075   1.231
  686SOL    HW1 2076   0.284   2.112   1.321
  686SOL    HW2 2077   0.277   1.980   1.225
  687SOL     OW 2078   0.037   3.172   1.282
  687SOL    HW1 2079   0.090   3.123   1.350
  687SOL    HW2 2080   0.059   3.270   1.287
  688SOL     OW 2081   0.732   2.496   1.064
  688SOL    HW1 2082   0.791   2.470   0.988
  688SOL    HW2 2083   0.704   2.592   1.053
  689SOL     OW 2084   1.728   2.797   1.854
  689SOL    HW1 2085   1.682   2.790   1.765
  689SOL    HW2 2086   1.666   2.841   1.920
  690SOL     OW 2087   0.307   1.925   0.618
  690SOL    HW1 2088   0.296   2.019   0.651
  690SOL    HW2 2089   0.302   1.862   0.695
  691SOL     OW 2090   1.622   2.229   0.374
  691SOL    HW1 2091   1.624   2.153   0.438
  691SOL    HW2 2092   1.574   2.306   0.414
  692SOL     OW 2093   1.023   2.628   0.966
  692SOL    HW1 2094   1.038   2.649   1.062
  692SOL    HW2 2095   0.993   2.533   0.957
  693SOL     OW 2096   0.980   3.435   1.700
  693SOL    HW1 2097   0.960   3.479   1.612
  693SOL    HW2 2098   1.019   3.344   1.684
  694SOL     OW 2099   1.859   3.380   1.605
  694SOL    HW1 2100   1.873   3.407   1.510
  694SOL    HW2 2101   1.942   3.402   1.658
  695SOL     OW 2102   0.350   2.760   1.804
  695SOL    HW1 2103   0.426   2.804   1.852
  695SOL    HW2 2104   0.385   2.713   1.722
  696SOL     OW 2105   1.540   2.136   0.125
  696SOL    HW1 2106   1.479   2.061   0.148
  696SOL    HW2 2107   1.562   2.188   0.208
  697SOL     OW 2108   1.303   2.700   0.042
  697SOL    HW1 2109   1.337   2.607   0.057
  697SOL    HW2 2110   1.321   2.727  -0.053
  698SOL     OW 2111   1.068   3.195   0.849
  698SOL    HW1 2112   1.075   3.111   0.794
  698SOL    HW2 2113   1.130   3.264   0.813
  699SOL     OW 2114   0.319   2.672   0.949
  699SOL    HW1 2115   0.412   2.708   0.954
  699SOL    HW2 2116   0.313   2.587   1.001
  700SOL     OW 2117   0.339   2.371   1.006
  700SOL    HW1 2118   0.287   2.288   0.989
  700SOL    HW2 2119   0.416   2.376   0.942
  701SOL     OW 2120   1.138   2.242   1.678
  701SOL    HW1 2121   1.093   2.305   1.742
  701SOL    HW2 2122   1.231   2.273   1.661
  702SOL     OW 2123   1.160   2.069   1.477
  702SOL    HW1 2124   1.160   2.133   1.554
  702SOL    HW2 2125   1.188   2.117   1.394
  703SOL     OW 2126   0.008   3.188   0.200
  703SOL    HW1 2127  -0.085   3.209   0.169
  703SOL    HW2 2128   0.018   3.089   0.213
  704SOL     OW 2129   0.088   3.663   0.927
  704SOL    HW1 2130   0.046   3.577   0.900
  704SOL    HW2 2131   0.182   3.666   0.893
  705SOL     OW 2132   0.504   3.430   0.910
  705SOL    HW1 2133   0.570   3.504   0.919
  705SOL    HW2 2134   0.548   3.351   0.868
  706SOL     OW 2135   1.002   2.658   1.238
  706SOL    HW1 2136   1.043   2.626   1.324
  706SOL    HW2 2137   0.906   2.631   1.235
  707SOL     OW 2138   0.040   2.406   1.114
  707SOL    HW1 2139   0.125   2.373   1.073
  707SOL    HW2 2140   0.053   2.421   1.212
  708SOL     OW 2141   0.189   2.382   1.722
  708SOL    HW1 2142   0.248   2.342   1.652
  708SOL    HW2 2143   0.131   2.453   1.681
  709SOL     OW 2144   1.369   2.812   1.660
  709SOL    HW1 2145   1.408   2.901   1.680
  709SOL    HW2 2146   1.379   2.792   1.563
  710SOL     OW 2147   0.815   2.434   0.325
  710SOL    HW1 2148   0.822   2.345   0.279
  710SOL    HW2 2149   0.721   2.468   0.317
  711SOL     OW 2150   1.657   2.466   1.206
  711SOL    HW1 2151   1.619   2.397   1.268
  711SOL    HW2 2152   1.739   2.430   1.162
  712SOL     OW 2153   0.252   3.426   1.744
  712SOL    HW1 2154   0.222   3.483   1.820
  712SOL    HW2 2155   0.245   3.329   1.770
  713SOL     OW 2156   0.671   2.326   1.269
  713SOL    HW1 2157   0.637   2.237   1.239
  713SOL    HW2 2158   0.697   2.380   1.189
  714SOL     OW 2159   0.930   3.540   1.465
  714SOL    HW1 2160   0.906   3.522   1.370
  714SOL    HW2 2161   0.960   3.634   1.475
  715SOL     OW 2162   0.473   2.362   0.191
  715SOL    HW1 2163   0.534   2.442   0.195
  715SOL    HW2 2164   0.378   2.393   0.198
  716SOL     OW 2165   0.159   2.999   1.466
  716SOL    HW1 2166   0.181   2.938   1.542
  716SOL    HW2 2167   0.169   2.950   1.380
  717SOL     OW 2168   1.347   2.921   1.234
  717SOL    HW1 2169   1.371   2.858   1.160
  717SOL    HW2 2170   1.257   2.961   1.216
  718SOL     OW 2171   1.302   2.717   0.309
  718SOL    HW1 2172   1.216   2.686   0.351
  718SOL    HW2 2173   1.298   2.703   0.210
  719SOL     OW 2174   1.759   3.609   1.154
  719SOL    HW1 2175   1.820   3.639   1.081
  719SOL    HW2 2176   1.721   3.520   1.132
  720SOL     OW 2177   1.252   3.593   1.128
  720SOL    HW1 2178   1.336   3.598   1.074
  720SOL    HW2 2179   1.229   3.497   1.146
  721SOL     OW 2180   0.083   3.120   1.022
  721SOL    HW1 2181   0.078   3.119   1.122
  721SOL    HW2 2182   0.000   3.079   0.984
  722SOL     OW 2183   0.688   3.524   1.716
  722SOL    HW1 2184   0.632   3.605   1.725
  722SOL    HW2 2185   0.740   3.528   1.630
  723SOL     OW 2186   0.903   1.948   0.133
  723SOL    HW1 2187   0.954   1.949   0.047
  723SOL    HW2 2188   0.959   1.906   0.204
  724SOL     OW 2189   1.726   1.997   0.523
  724SOL    HW1 2190   1.799   1.980   0.456
  724SOL    HW2 2191   1.695   1.910   0.561
  725SOL     OW 2192   1.388   3.435   0.477
  725SOL    HW1 2193   1.455   3.447   0.403
  725SOL    HW2 2194   1.348   3.524   0.500
  726SOL     OW 2195   0.130   3.656   1.851
  726SOL    HW1 2196   0.089   3.582   1.904
  726SOL    HW2 2197   0.194   3.707   1.909
  727SOL     OW 2198   1.280   2.789   0.672
  727SOL    HW1 2199   1.340   2.708   0.674
  727SOL    HW2 2200   1.320   2.858   0.612
  728SOL     OW 2201   0.830   3.135   1.422
  728SOL    HW1 2202   0.825   3.168   1.517
  728SOL    HW2 2203   0.744   3.154   1.376
  729SOL     OW 2204   0.672   3.478   0.154
  729SOL    HW1 2205   0.681   3.488   0.055
  729SOL    HW2 2206   0.632   3.389   0.175
  730SOL     OW 2207   1.650   3.582   1.394
  730SOL    HW1 2208   1.703   3.592   1.310
  730SOL    HW2 2209   1.623   3.672   1.428
  731SOL     OW 2210   1.841   2.037   0.963
  731SOL    HW1 2211   1.880   1.952   0.927
  731SOL    HW2 2212   1.743   2.039   0.944
  732SOL     OW 2213   0.263   2.188   0.720
  732SOL    HW1 2214   0.184   2.239   0.686
  732SOL    HW2 2215   0.254   2.173   0.818
  733SOL     OW 2216   1.194   3.474   0.031
  733SOL    HW1 2217   1.200   3.381   0.068
  733SOL    HW2 2218   1.135   3.474  -0.049
  734SOL     OW 2219   0.822   2.864   1.372
  734SOL    HW1 2220   0.862   2.863   1.280
  734SOL    HW2 2221   0.832   2.956   1.412
  735SOL     OW 2222   0.916   2.772   0.291
  735SOL    HW1 2223   0.979   2.810   0.223
  735SOL    HW2 2224   0.956   2.689   0.330
  736SOL     OW 2225   1.504   3.469   0.044
  736SOL    HW1 2226   1.412   3.506   0.051
  736SOL    HW2 2227   1.542   3.489  -0.046
  737SOL     OW 2228   0.372   3.150   1.490
  737SOL    HW1 2229   0.359   3.243   1.456
  737SOL    HW2 2230   0.288   3.098   1.477
  738SOL     OW 2231   1.614   3.154   1.289
  738SOL    HW1 2232   1.674   3.157   1.369
  738SOL    HW2 2233   1.539   3.218   1.302
  739SOL     OW 2234   1.039   2.960   0.696
  739SOL    HW1 2235   0.969   2.913   0.750
  739SOL    HW2 2236   1.098   2.892   0.653
  740SOL     OW 2237   1.014   2.098   0.971
  740SOL    HW1 2238   1.006   2.062   0.878
  740SOL    HW2 2239   1.012   2.022   1.036
  741SOL     OW 2240   0.590   3.349   0.491
  741SOL    HW1 2241   0.632   3.291   0.421
  741SOL    HW2 2242   0.546   3.428   0.447
  742SOL     OW 2243   1.709   2.247   1.381
  742SOL    HW1 2244   1.782   2.316   1.385
  742SOL    HW2 2245   1.737   2.172   1.322
  743SOL     OW 2246   0.255   3.210   0.290
  743SOL    HW1 2247   0.159   3.211   0.263
  743SOL    HW2 2248   0.267   3.263   0.374
  744SOL     OW 2249   0.105   2.875   1.726
  744SOL    HW1 2250   0.028   2.842   1.780
  744SOL    HW2 2251   0.190   2.845   1.768
  745SOL     OW 2252   0.672   2.065   1.489
  745SOL    HW1 2253   0.762   2.049   1.449
  745SOL    HW2 2254   0.680   2.070   1.588
  746SOL     OW 2255   0.075   2.207   0.033
  746SOL    HW1 2256  -0.017   2.179   0.004
  746SOL    HW2 2257   0.106   2.284  -0.023
  747SOL     OW 2258   1.440   2.718   1.398
  747SOL    HW1 2259   1.383   2.770   1.335
  747SOL    HW2 2260   1.536   2.730   1.374
  748SOL     OW 2261   0.072   2.028   0.318
  748SOL    HW1 2262   0.055   2.111   0.264
  748SOL    HW2 2263   0.162   1.991   0.296
  749SOL     OW 2264   1.183   3.197   0.119
  749SOL    HW1 2265   1.084   3.186   0.121
  749SOL    HW2 2266   1.217   3.212   0.212
  750SOL     OW 2267   0.613   2.704   1.431
  750SOL    HW1 2268   0.669   2.785   1.414
  750SOL    HW2 2269   0.672   2.624   1.434
  751SOL     OW 2270   1.493   3.629   0.959
  751SOL    HW1 2271   1.526   3.693   0.890
  751SOL    HW2 2272   1.559   3.623   1.034
  752SOL     OW 2273   0.716   2.427   1.708
  752SOL    HW1 2274   0.735   2.492   1.782
  752SOL    HW2 2275   0.776   2.347   1.717
  753SOL     OW 2276   1.450   3.082   1.633
  753SOL    HW1 2277   1.441   3.072   1.732
  753SOL    HW2 2278   1.546   3.075   1.607
  754SOL     OW 2279   0.390   3.603   1.560
  754SOL    HW1 2280   0.299   3.644   1.558
  754SOL    HW2 2281   0.383   3.509   1.592
  755SOL     OW 2282   1.674   2.745   1.254
  755SOL    HW1 2283   1.647   2.656   1.217
  755SOL    HW2 2284   1.675   2.813   1.181
  756SOL     OW 2285   1.225   2.187   0.449
  756SOL    HW1 2286   1.290   2.113   0.438
  756SOL    HW2 2287   1.245   2.237   0.533
  757SOL     OW 2288   0.594   2.607   0.652
  757SOL    HW1 2289   0.644   2.692   0.633
  757SOL    HW2 2290   0.506   2.609   0.604
  758SOL     OW 2291   1.777   2.204   1.642
  758SOL    HW1 2292   1.760   2.235   1.548
  758SOL    HW2 2293   1.693   2.167   1.680
  759SOL     OW 2294   1.730   2.796   1.517
  759SOL    HW1 2295   1.768   2.887   1.532
  759SOL    HW2 2296   1.722   2.779   1.418
  760SOL     OW 2297   0.859   3.236   0.016
  760SOL    HW1 2298   0.813   3.251   0.104
  760SOL    HW2 2299   0.903   3.321  -0.014
  761SOL     OW 2300   0.661   3.652   0.953
  761SOL    HW1 2301   0.615   3.740   0.940
  761SOL    HW2 2302   0.760   3.664   0.946
  762SOL     OW 2303   0.859   2.818   0.861
  762SOL    HW1 2304   0.913   2.749   0.909
  762SOL    HW2 2305   0.827   2.887   0.927
  763SOL     OW 2306   1.083   2.846   0.087
  763SOL    HW1 2307   1.060   2.899   0.005
  763SOL    HW2 2308   1.164   2.790   0.068
  764SOL     OW 2309   1.861   3.431   0.851
  764SOL    HW1 2310   1.790   3.419   0.781
  764SOL    HW2 2311   1.862   3.352   0.911
  765SOL     OW 2312   0.221   3.176   1.844
  765SOL    HW1 2313   0.156   3.103   1.823
  765SOL    HW2 2314   0.225   3.190   1.942
  766SOL     OW 2315   0.079   3.102   0.653
  766SOL    HW1 2316   0.078   3.055   0.741
  766SOL    HW2 2317   0.161   3.074   0.602
  767SOL     OW 2318   0.672   3.253   1.624
  767SOL    HW1 2319   0.594   3.203   1.662
  767SOL    HW2 2320   0.669   3.348   1.655
  768SOL     OW 2321   1.824   2.054   1.227
  768SOL    HW1 2322   1.820   1.964   1.271
  768SOL    HW2 2323   1.827   2.043   1.128
  769SOL     OW 2324   0.428   2.286   0.520
  769SOL    HW1 2325   0.458   2.214   0.458
  769SOL    HW2 2326   0.389   2.246   0.603
  770SOL     OW 2327   1.705   3.349   1.104
  770SOL    HW1 2328   1.612   3.324   1.077
  770SOL    HW2 2329   1.731   3.299   1.186
  771SOL     OW 2330   0.317   2.409   1.280
  771SOL    HW1 2331   0.355   2.350   1.352
  771SOL    HW2 2332   0.357   2.383   1.192
  772SOL     OW 2333   0.812   3.448   0.687
  772SOL    HW1 2334   0.844   3.458   0.593
  772SOL    HW2 2335   0.733   3.386   0.689
  773SOL     OW 2336   1.424   2.076   1.112
  773SOL    HW1 2337   1.476   2.011   1.167
  773SOL    HW2 2338   1.375   2.139   1.173
  774SOL     OW 2339   1.001   1.896   1.154
  774SOL    HW1 2340   0.938   1.824   1.123
  774SOL    HW2 2341   1.094   1.860   1.154
  775SOL     OW 2342   0.770   3.192   0.301
  775SOL    HW1 2343   0.724   3.105   0.318
  775SOL    HW2 2344   0.861   3.189   0.342
  776SOL     OW 2345   0.618   3.429   1.284
  776SOL    HW1 2346   0.613   3.511   1.341
  776SOL    HW2 2347   0.707   3.426   1.239
  777SOL     OW 2348   1.352   1.914   0.168
  777SOL    HW1 2349   1.387   1.873   0.084
  777SOL    HW2 2350   1.262   1.876   0.188
  778SOL     OW 2351   1.300   2.315   0.691
  778SOL    HW1 2352   1.241   2.395   0.695
  778SOL    HW2 2353   1.315   2.280   0.784
  779SOL     OW 2354   1.593   2.083   0.882
  779SOL    HW1 2355   1.509   2.082   0.936
  779SOL    HW2 2356   1.595   2.166   0.826
  780SOL     OW 2357   0.039   2.939   0.300
  780SOL    HW1 2358   0.138   2.928   0.291
  780SOL    HW2 2359  -0.001   2.853   0.332
  781SOL     OW 2360   0.875   3.508   0.337
  781SOL    HW1 2361   0.798   3.473   0.283
  781SOL    HW2 2362   0.843   3.579   0.399
  782SOL     OW 2363   0.230   2.490   1.975
  782SOL    HW1 2364   0.137   2.488   2.012
  782SOL    HW2 2365   0.231   2.451   1.883
  783SOL     OW 2366   0.225   2.137   2.858
  783SOL    HW1 2367   0.260   2.120   2.950
  783SOL    HW2 2368   0.137   2.092   2.846
  784SOL     OW 2369   0.019   2.230   2.509
  784SOL    HW1 2370  -0.063   2.273   2.548
  784SOL    HW2 2371  -0.009   2.157   2.446
  785SOL     OW 2372   0.569   3.137   3.027
  785SOL    HW1 2373   0.476   3.130   2.990
  785SOL    HW2 2374   0.580   3.226   3.071
  786SOL     OW 2375   1.555   3.373   2.565
  786SOL    HW1 2376   1.498   3.357   2.646
  786SOL    HW2 2377   1.496   3.383   2.485
  787SOL     OW 2378   1.135   2.565   2.579
  787SOL    HW1 2379   1.192   2.643   2.554
  787SOL    HW2 2380   1.075   2.591   2.655
  788SOL     OW 2381   1.755   2.469   2.093
  788SOL    HW1 2382   1.743   2.456   1.994
  788SOL    HW2 2383   1.725   2.388   2.142
  789SOL     OW 2384   0.768   3.006   2.885
  789SOL    HW1 2385   0.690   3.023   2.945
  789SOL    HW2 2386   0.802   3.093   2.849
  790SOL     OW 2387   0.850   2.660   3.685
  790SOL    HW1 2388   0.846   2.736   3.750
  790SOL    HW2 2389   0.872   2.696   3.594
  791SOL     OW 2390   0.685   2.874   2.527
  791SOL    HW1 2391   0.754   2.858   2.597
  791SOL    HW2 2392   0.612   2.931   2.565
  792SOL     OW 2393   0.686   3.023   3.665
  792SOL    HW1 2394   0.746   3.102   3.679
  792SOL    HW2 2395   0.600   3.054   3.624
  793SOL     OW 2396   0.335   3.297   2.923
  793SOL    HW1 2397   0.257   3.266   2.870
  793SOL    HW2 2398   0.393   3.355   2.866
  794SOL     OW 2399   1.460   3.367   3.201
  794SOL    HW1 2400   1.484   3.461   3.227
  794SOL    HW2 2401   1.444   3.313   3.283
  795SOL     OW 2402   0.438   2.254   3.361
  795SOL    HW1 2403   0.520   2.198   3.370
  795SOL    HW2 2404   0.357   2.196   3.365
  796SOL     OW 2405   1.603   2.309   2.599
  796SOL    HW1 2406   1.529   2.355   2.549
  796SOL    HW2 2407   1.654   2.377   2.652
  797SOL     OW 2408   0.231   3.575   2.345
  797SOL    HW1 2409   0.265   3.652   2.399
  797SOL    HW2 2410   0.275   3.575   2.255
  798SOL     OW 2411   1.127   3.203   3.552
  798SOL    HW1 2412   1.174   3.203   3.640
  798SOL    HW2 2413   1.079   3.116   3.541
  799SOL     OW 2414   0.230   3.296   2.400
  799SOL    HW1 2415   0.204   3.392   2.400
  799SOL    HW2 2416   0.159   3.242   2.445
  800SOL     OW 2417   0.240   2.953   2.748
  800SOL    HW1 2418   0.254   2.869   2.800
  800SOL    HW2 2419   0.185   3.017   2.803
  801SOL     OW 2420   0.620   3.648   3.301
  801SOL    HW1 2421   0.528   3.631   3.336
  801SOL    HW2 2422   0.648   3.740   3.327
  802SOL     OW 2423   0.606   2.826   1.985
  802SOL    HW1 2424   0.613   2.910   1.931
  802SOL    HW2 2425   0.652   2.839   2.073
  803SOL     OW 2426   1.594   1.976   3.342
  803SOL    HW1 2427   1.576   2.043   3.270
  803SOL    HW2 2428   1.591   2.022   3.431
  804SOL     OW 2429   0.122   2.505   2.425
  804SOL    HW1 2430   0.077   2.417   2.442
  804SOL    HW2 2431   0.121   2.559   2.509
  805SOL     OW 2432   1.842   3.629   2.221
  805SOL    HW1 2433   1.896   3.600   2.301
  805SOL    HW2 2434   1.872   3.719   2.192
  806SOL     OW 2435   0.027   3.458   1.979
  806SOL    HW1 2436   0.008   3.362   2.000
  806SOL    HW2 2437  -0.006   3.516   2.054
  807SOL     OW 2438   1.689   2.784   2.474
  807SOL    HW1 2439   1.784   2.755   2.482
  807SOL    HW2 2440   1.681   2.849   2.399
  808SOL     OW 2441   1.641   2.970   2.294
  808SOL    HW1 2442   1.727   2.972   2.242
  808SOL    HW2 2443   1.655   3.017   2.382
  809SOL     OW 2444   0.113   2.599   3.459
  809SOL    HW1 2445   0.201   2.586   3.504
  809SOL    HW2 2446   0.100   2.696   3.437
  810SOL     OW 2447   0.613   3.227   2.588
  810SOL    HW1 2448   0.564   3.140   2.597
  810SOL    HW2 2449   0.590   3.270   2.501
  811SOL     OW 2450   1.293   3.090   3.285
  811SOL    HW1 2451   1.330   3.017   3.227
  811SOL    HW2 2452   1.345   3.095   3.370
  812SOL     OW 2453   0.809   1.866   2.364
  812SOL    HW1 2454   0.849   1.957   2.355
  812SOL    HW2 2455   0.709   1.874   2.370
  813SOL     OW 2456   0.197   2.838   3.126
  813SOL    HW1 2457   0.286   2.793   3.112
  813SOL    HW2 2458   0.124   2.773   3.107
  814SOL     OW 2459   1.525   2.861   2.052
  814SOL    HW1 2460   1.462   2.785   2.065
  814SOL    HW2 2461   1.573   2.879   2.138
  815SOL     OW 2462   1.187   3.654   3.478
  815SOL    HW1 2463   1.211   3.714   3.402
  815SOL    HW2 2464   1.194   3.559   3.448
  816SOL     OW 2465   0.317   2.113   3.663
  816SOL    HW1 2466   0.388   2.184   3.669
  816SOL    HW2 2467   0.229   2.152   3.691
  817SOL     OW 2468   1.466   3.279   2.815
  817SOL    HW1 2469   1.407   3.285   2.895
  817SOL    HW2 2470   1.451   3.191   2.769
  818SOL     OW 2471   1.667   3.576   2.434
  818SOL    HW1 2472   1.626   3.553   2.346
  818SOL    HW2 2473   1.649   3.502   2.499
  819SOL     OW 2474   0.598   2.591   2.132
  819SOL    HW1 2475   0.622   2.660   2.064
  819SOL    HW2 2476   0.520   2.624   2.186
  820SOL     OW 2477   1.281   2.207   2.806
  820SOL    HW1 2478   1.195   2.157   2.793
  820SOL    HW2 2479   1.343   2.153   2.862
  821SOL     OW 2480   1.576   3.524   2.169
  821SOL    HW1 2481   1.665   3.570   2.172
  821SOL    HW2 2482   1.555   3.500   2.074
  822SOL     OW 2483   0.807   2.467   3.327
  822SOL    HW1 2484   0.760   2.464   3.416
  822SOL    HW2 2485   0.756   2.412   3.261
  823SOL     OW 2486   1.394   2.331   3.536
  823SOL    HW1 2487   1.374   2.374   3.624
  823SOL    HW2 2488   1.472   2.269   3.545
  824SOL     OW 2489   0.973   2.752   3.434
  824SOL    HW1 2490   1.019   2.668   3.405
  824SOL    HW2 2491   0.917   2.786   3.359
  825SOL     OW 2492   0.991   2.272   3.104
  825SOL    HW1 2493   0.914   2.306   3.158
  825SOL    HW2 2494   0.957   2.221   3.025
  826SOL     OW 2495   1.041   2.563   2.291
  826SOL    HW1 2496   1.067   2.559   2.387
  826SOL    HW2 2497   0.956   2.512   2.277
  827SOL     OW 2498   0.076   2.673   2.651
  827SOL    HW1 2499   0.175   2.661   2.660
  827SOL    HW2 2500   0.052   2.768   2.672
  828SOL     OW 2501   0.130   3.683   3.433
  828SOL    HW1 2502   0.120   3.668   3.532
  828SOL    HW2 2503   0.044   3.719   3.397
  829SOL     OW 2504   0.865   2.210   2.057
  829SOL    HW1 2505   0.924   2.273   2.008
  829SOL    HW2 2506   0.884   2.116   2.028
  830SOL     OW 2507   1.719   2.447   3.693
  830SOL    HW1 2508   1.693   2.536   3.657
  830SOL    HW2 2509   1.717   2.379   3.620
  831SOL     OW 2510   1.362   3.006   2.407
  831SOL    HW1 2511   1.445   2.977   2.359
  831SOL    HW2 2512   1.313   3.073   2.351
  832SOL     OW 2513   0.550   2.058   2.747
  832SOL    HW1 2514   0.545   2.053   2.847
  832SOL    HW2 2515   0.552   2.154   2.718
  833SOL     OW 2516   1.008   3.318   2.339
  833SOL    HW1 2517   0.962   3.390   2.287
  833SOL    HW2 2518   1.004   3.338   2.437
  834SOL     OW 2519   0.351   3.663   2.715
  834SOL    HW1 2520   0.401   3.577   2.721
  834SOL    HW2 2521   0.416   3.740   2.712
  835SOL     OW 2522   1.795   2.928   2.735
  835SOL    HW1 2523   1.733   2.913   2.659
  835SOL    HW2 2524   1.743   2.939   2.820
  836SOL     OW 2525   1.227   3.412   3.368
  836SOL    HW1 2526   1.233   3.335   3.432
  836SOL    HW2 2527   1.175   3.386   3.288
  837SOL     OW 2528   0.321   2.805   2.104
  837SOL    HW1 2529   0.403   2.844   2.062
  837SOL    HW2 2530   0.294   2.723   2.055
  838SOL     OW 2531   1.458   2.597   2.590
  838SOL    HW1 2532   1.453   2.532   2.665
  838SOL    HW2 2533   1.538   2.656   2.603
  839SOL     OW 2534   0.461   3.128   3.589
  839SOL    HW1 2535   0.411   3.129   3.503
  839SOL    HW2 2536   0.398   3.110   3.665
  840SOL     OW 2537   1.111   3.638   2.099
  840SOL    HW1 2538   1.051   3.576   2.149
  840SOL    HW2 2539   1.142   3.594   2.014
  841SOL     OW 2540   0.202   2.147   3.360
  841SOL    HW1 2541   0.122   2.207   3.347
  841SOL    HW2 2542   0.192   2.098   3.446
  842SOL     OW 2543   1.632   3.239   1.943
  842SOL    HW1 2544   1.600   3.333   1.933
  842SOL    HW2 2545   1.556   3.176   1.931
  843SOL     OW 2546   0.464   3.605   2.185
  843SOL    HW1 2547   0.497   3.644   2.271
  843SOL    HW2 2548   0.540   3.598   2.120
  844SOL     OW 2549   1.400   1.969   2.288
  844SOL    HW1 2550   1.376   1.932   2.198
  844SOL    HW2 2551   1.499   1.985   2.292
  845SOL     OW 2552   0.249   3.647   3.103
  845SOL    HW1 2553   0.306   3.582   3.153
  845SOL    HW2 2554   0.233   3.614   3.010
  846SOL     OW 2555   0.940   3.560   2.766
  846SOL    HW1 2556   1.020   3.503   2.787
  846SOL    HW2 2557   0.891   3.520   2.689
  847SOL     OW 2558   0.382   2.562   2.342
  847SOL    HW1 2559   0.427   2.472   2.339
  847SOL    HW2 2560   0.288   2.551   2.375
  848SOL     OW 2561   1.547   2.084   3.591
  848SOL    HW1 2562   1.542   2.121   3.683
  848SOL    HW2 2563   1.475   2.015   3.579
  849SOL     OW 2564   0.614   1.984   1.979
  849SOL    HW1 2565   0.712   1.962   1.986
  849SOL    HW2 2566   0.583   1.967   1.886
  850SOL     OW 2567   0.781   2.126   3.611
  850SOL    HW1 2568   0.848   2.065   3.654
  850SOL    HW2 2569   0.708   2.145   3.676
  851SOL     OW 2570   0.888   3.376   3.057
  851SOL    HW1 2571   0.865   3.351   2.963
  851SOL    HW2 2572   0.949   3.307   3.096
  852SOL     OW 2573   1.351   2.452   3.295
  852SOL    HW1 2574   1.379   2.409   3.380
  852SOL    HW2 2575   1.376   2.548   3.296
  853SOL     OW 2576   0.803   3.264   2.786
  853SOL    HW1 2577   0.893   3.278   2.744
  853SOL    HW2 2578   0.732   3.266   2.715
  854SOL     OW 2579   0.922   2.365   2.761
  854SOL    HW1 2580   0.897   2.356   2.665
  854SOL    HW2 2581   0.970   2.283   2.792
  855SOL     OW 2582   0.539   1.926   2.374
  855SOL    HW1 2583   0.458   1.927   2.432
  855SOL    HW2 2584   0.542   2.009   2.319
  856SOL     OW 2585   1.434   3.050   1.903
  856SOL    HW1 2586   1.466   2.974   1.960
  856SOL    HW2 2587   1.342   3.077   1.933
  857SOL     OW 2588   0.297   1.897   2.033
  857SOL    HW1 2589   0.346   1.981   2.012
  857SOL    HW2 2590   0.359   1.832   2.078
  858SOL     OW 2591   0.935   2.098   2.342
  858SOL    HW1 2592   0.887   2.139   2.264
  858SOL    HW2 2593   1.034   2.096   2.323
  859SOL     OW 2594   1.076   2.545   3.326
  859SOL    HW1 2595   0.996   2.484   3.329
  859SOL    HW2 2596   1.157   2.492   3.302
  860SOL     OW 2597   1.227   3.432   2.655
  860SOL    HW1 2598   1.248   3.506   2.590
  860SOL    HW2 2599   1.295   3.432   2.728
  861SOL     OW 2600   0.459   3.014   2.603
  861SOL    HW1 2601   0.388   2.987   2.668
  861SOL    HW2 2602   0.433   2.986   2.510
  862SOL     OW 2603   1.271   3.659   2.453
  862SOL    HW1 2604   1.315   3.723   2.389
  862SOL    HW2 2605   1.221   3.711   2.523
  863SOL     OW 2606   1.032   2.411   1.878
  863SOL    HW1 2607   0.991   2.493   1.839
  863SOL    HW2 2608   1.096   2.437   1.951
  864SOL     OW 2609   0.078   2.418   3.248
  864SOL    HW1 2610   0.170   2.417   3.207
  864SOL    HW2 2611   0.072   2.492   3.315
  865SOL     OW 2612   0.561   2.084   3.009
  865SOL    HW1 2613   0.599   2.000   3.046
  865SOL    HW2 2614   0.473   2.103   3.053
  866SOL     OW 2615   0.866   2.316   2.504
  866SOL    HW1 2616   0.834   2.388   2.442
  866SOL    HW2 2617   0.890   2.235   2.451
  867SOL     OW 2618   1.017   1.901   2.615
  867SOL    HW1 2619   0.945   1.906   2.546
  867SOL    HW2 2620   0.993   1.832   2.684
  868SOL     OW 2621   1.429   3.035   2.729
  868SOL    HW1 2622   1.374   2.951   2.722
  868SOL    HW2 2623   1.455   3.064   2.637
  869SOL     OW 2624   1.466   2.452   2.854
  869SOL    HW1 2625   1.436   2.357   2.861
  869SOL    HW2 2626   1.539   2.468   2.920
  870SOL     OW 2627   1.857   2.695   2.239
  870SOL    HW1 2628   1.899   2.631   2.303
  870SOL    HW2 2629   1.819   2.644   2.161
  871SOL     OW 2630   0.488   3.247   2.036
  871SOL    HW1 2631   0.401   3.232   2.083
  871SOL    HW2 2632   0.471   3.273   1.941
  872SOL     OW 2633   1.664   3.142   2.519
  872SOL    HW1 2634   1.763   3.150   2.533
  872SOL    HW2 2635   1.619   3.226   2.550
  873SOL     OW 2636   1.390   2.437   1.940
  873SOL    HW1 2637   1.336   2.416   2.021
  873SOL    HW2 2638   1.481   2.396   1.949
  874SOL     OW 2639   0.527   2.118   2.190
  874SOL    HW1 2640   0.554   2.059   2.115
  874SOL    HW2 2641   0.527   2.213   2.159
  875SOL     OW 2642   1.754   3.085   3.450
  875SOL    HW1 2643   1.845   3.046   3.437
  875SOL    HW2 2644   1.762   3.181   3.474
  876SOL     OW 2645   1.064   3.209   3.202
  876SOL    HW1 2646   0.984   3.186   3.257
  876SOL    HW2 2647   1.147   3.183   3.251
  877SOL     OW 2648   1.592   3.491   3.487
  877SOL    HW1 2649   1.619   3.525   3.397
  877SOL    HW2 2650   1.671   3.453   3.533
  878SOL     OW 2651   1.111   3.057   2.962
  878SOL    HW1 2652   1.071   3.101   3.043
  878SOL    HW2 2653   1.070   3.094   2.879
  879SOL     OW 2654   1.638   2.961   2.941
  879SOL    HW1 2655   1.643   3.042   3.000
  879SOL    HW2 2656   1.552   2.963   2.890
  880SOL     OW 2657   0.915   1.951   3.264
  880SOL    HW1 2658   0.940   1.931   3.169
  880SOL    HW2 2659   0.987   2.007   3.306
  881SOL     OW 2660   0.980   2.978   3.581
  881SOL    HW1 2661   0.881   2.984   3.591
  881SOL    HW2 2662   1.003   2.898   3.525
  882SOL     OW 2663   0.705   2.912   2.230
  882SOL    HW1 2664   0.691   2.919   2.329
  882SOL    HW2 2665   0.789   2.861   2.212
  883SOL     OW 2666   0.410   2.675   3.113
  883SOL    HW1 2667   0.496   2.687   3.163
  883SOL    HW2 2668   0.368   2.588   3.140
  884SOL     OW 2669   1.274   2.248   3.124
  884SOL    HW1 2670   1.295   2.322   3.188
  884SOL    HW2 2671   1.185   2.265   3.081
  885SOL     OW 2672   0.064   3.426   3.193
  885SOL    HW1 2673   0.018   3.508   3.159
  885SOL    HW2 2674   0.162   3.445   3.202
  886SOL     OW 2675   0.367   2.962   2.363
  886SOL    HW1 2676   0.360   3.045   2.307
  886SOL    HW2 2677   0.371   2.882   2.303
  887SOL     OW 2678   0.566   2.399   2.727
  887SOL    HW1 2679   0.578   2.465   2.653
  887SOL    HW2 2680   0.612   2.433   2.810
  888SOL     OW 2681   1.252   3.210   2.250
  888SOL    HW1 2682   1.302   3.287   2.290
  888SOL    HW2 2683   1.157   3.212   2.282
  889SOL     OW 2684   1.272   3.307   3.004
  889SOL    HW1 2685   1.319   3.320   3.091
  889SOL    HW2 2686   1.206   3.233   3.013
  890SOL     OW 2687   1.582   2.501   2.334
  890SOL    HW1 2688   1.551   2.562   2.407
  890SOL    HW2 2689   1.632   2.553   2.265
  891SOL     OW 2690   0.354   3.372   3.191
  891SOL    HW1 2691   0.333   3.328   3.104
  891SOL    HW2 2692   0.451   3.398   3.194
  892SOL     OW 2693   0.402   2.613   3.460
  892SOL    HW1 2694   0.470   2.668   3.413
  892SOL    HW2 2695   0.442   2.525   3.487
  893SOL     OW 2696   1.587   2.641   3.532
  893SOL    HW1 2697   1.495   2.679   3.527
  893SOL    HW2 2698   1.647   2.688   3.467
  894SOL     OW 2699   1.013   1.967   3.632
  894SOL    HW1 2700   1.019   2.052   3.580
  894SOL    HW2 2701   1.045   1.891   3.575
  895SOL     OW 2702   0.504   1.912   3.602
  895SOL    HW1 2703   0.462   1.855   3.532
  895SOL    HW2 2704   0.438   1.981   3.634
  896SOL     OW 2705   0.573   2.732   2.891
  896SOL    HW1 2706   0.617   2.821   2.882
  896SOL    HW2 2707   0.510   2.732   2.968
  897SOL     OW 2708   1.360   2.724   2.907
  897SOL    HW1 2709   1.285   2.724   2.841
  897SOL    HW2 2710   1.397   2.632   2.916
  898SOL     OW 2711   1.209   2.387   2.137
  898SOL    HW1 2712   1.222   2.303   2.191
  898SOL    HW2 2713   1.180   2.461   2.197
  899SOL     OW 2714   0.307   2.075   3.093
  899SOL    HW1 2715   0.284   2.112   3.183
  899SOL    HW2 2716   0.277   1.980   3.087
  900SOL     OW 2717   0.037   3.172   3.144
  900SOL    HW1 2718   0.090   3.123   3.212
  900SOL    HW2 2719   0.059   3.270   3.149
  901SOL     OW 2720   0.732   2.496   2.926
  901SOL    HW1 2721   0.791   2.470   2.850
  901SOL    HW2 2722   0.704   2.592   2.915
  902SOL     OW 2723   1.728   2.797   3.716
  902SOL    HW1 2724   1.682   2.790   3.627
  902SOL    HW2 2725   1.666   2.841   3.782
  903SOL     OW 2726   0.307   1.925   2.480
  903SOL    HW1 2727   0.296   2.019   2.513
  903SOL    HW2 2728   0.302   1.862   2.557
  904SOL     OW 2729   1.622   2.229   2.236
  904SOL    HW1 2730   1.624   2.153   2.300
  904SOL    HW2 2731   1.574   2.306   2.276
  905SOL     OW 2732   1.023   2.628   2.828
  905SOL    HW1 2733   1.038   2.649   2.924
  905SOL    HW2 2734   0.993   2.533   2.819
  906SOL     OW 2735   0.980   3.435   3.562
  906SOL    HW1 2736   0.960   3.479   3.474
  906SOL    HW2 2737   1.019   3.344   3.546
  907SOL     OW 2738   1.859   3.380   3.467
  907SOL    HW1 2739   1.873   3.407   3.372
  907SOL    HW2 2740   1.942   3.402   3.520
  908SOL     OW 2741   0.350   2.760   3.666
  908SOL    HW1 2742   0.426   2.804   3.714
  908SOL    HW2 2743   0.385   2.713   3.584
  909SOL     OW 2744   1.540   2.136   1.987
  909SOL    HW1 2745   1.479   2.061   2.010
  909SOL    HW2 2746   1.562   2.188   2.070
  910SOL     OW 2747   1.303   2.700   1.904
  910SOL    HW1 2748   1.337   2.607   1.919
  910SOL    HW2 2749   1.321   2.727   1.809
  911SOL     OW 2750   1.068   3.195   2.711
  911SOL    HW1 2751   1.075   3.111   2.656
  911SOL    HW2 2752   1.130   3.264   2.675
  912SOL     OW 2753   0.319   2.672   2.811
  912SOL    HW1 2754   0.412   2.708   2.816
  912SOL    HW2 2755   0.313   2.587   2.863
  913SOL     OW 2756   0.339   2.371   2.868
  913SOL    HW1 2757   0.287   2.288   2.851
  913SOL    HW2 2758   0.416   2.376   2.804
  914SOL     OW 2759   1.138   2.242   3.540
  914SOL    HW1 2760   1.093   2.305   3.604
  914SOL    HW2 2761   1.231   2.273   3.523
  915SOL     OW 2762   1.160   2.069   3.339
  915SOL    HW1 2763   1.160   2.133   3.416
  915SOL    HW2 2764   1.188   2.117   3.256
  916SOL     OW 2765   0.008   3.188   2.062
  916SOL    HW1 2766  -0.085   3.209   2.031
  916SOL    HW2 2767   0.018   3.089   2.075
  917SOL     OW 2768   0.088   3.663   2.789
  917SOL    HW1 2769   0.046   3.577   2.762
  917SOL    HW2 2770   0.182   3.666   2.755
  918SOL     OW 2771   0.504   3.430   2.772
  918SOL    HW1 2772   0.570   3.504   2.781
  918SOL    HW2 2773   0.548   3.351   2.730
  919SOL     OW 2774   1.002   2.658   3.100
  919SOL    HW1 2775   1.043   2.626   3.186
  919SOL    HW2 2776   0.906   2.631   3.097
  920SOL     OW 2777   0.040   2.406   2.976
  920SOL    HW1 2778   0.125   2.373   2.935
  920SOL    HW2 2779   0.053   2.421   3.074
  921SOL     OW 2780   0.189   2.382   3.584
  921SOL    HW1 2781   0.248   2.342   3.514
  921SOL    HW2 2782   0.131   2.453   3.543
  922SOL     OW 2783   1.369   2.812   3.522
  922SOL    HW1 2784   1.408   2.901   3.542
  922SOL    HW2 2785   1.379   2.792   3.425
  923SOL     OW 2786   0.815   2.434   2.187
  923SOL    HW1 2787   0.822   2.345   2.141
  923SOL    HW2 2788   0.721   2.468   2.179
  924SOL     OW 2789   1.657   2.466   3.068
  924SOL    HW1 2790   1.619   2.397   3.130
  924SOL    HW2 2791   1.739   2.430   3.024
  925SOL     OW 2792   0.252   3.426   3.606
  925SOL    HW1 2793   0.222   3.483   3.682
  925SOL    HW2 2794   0.245   3.329   3.632
  926SOL     OW 2795   0.671   2.326   3.131
  926SOL    HW1 2796   0.637   2.237   3.101
  926SOL    HW2 2797   0.697   2.380   3.051
  927SOL     OW 2798   0.930   3.540   3.327
  927SOL    HW1 2799   0.906   3.522   3.232
  927SOL    HW2 2800   0.960   3.634   3.337
  928SOL     OW 2801   0.473   2.362   2.053
  928SOL    HW1 2802   0.534   2.442   2.057
  928SOL    HW2 2803   0.378   2.393   2.060
  929SOL     OW 2804   0.159   2.999   3.328
  929SOL    HW1 2805   0.181   2.938   3.404
  929SOL    HW2 2806   0.169   2.950   3.242
  930SOL     OW 2807   1.347   2.921   3.096
  930SOL    HW1 2808   1.371   2.858   3.022
  930SOL    HW2 2809   1.257   2.961   3.078
  931SOL     OW 2810   1.302   2.717   2.171
  931SOL    HW1 2811   1.216   2.686   2.213
  931SOL    HW2 2812   1.298   2.703   2.072
  932SOL     OW 2813   1.759   3.609   3.016
  932SOL    HW1 2814   1.820   3.639   2.943
  932SOL    HW2 2815   1.721   3.520   2.994
  933SOL     OW 2816   1.252   3.593   2.990
  933SOL    HW1 2817   1.336   3.598   2.936
  933SOL    HW2 2818   1.229   3.497   3.008
  934SOL     OW 2819   0.083   3.120   2.884
  934SOL    HW1 2820   0.078   3.119   2.984
  934SOL    HW2 2821   0.000   3.079   2.846
  935SOL     OW 2822   0.688   3.524   3.578
  935SOL    HW1 2823   0.632   3.605   3.587
  935SOL    HW2 2824   0.740   3.528   3.492
  936SOL     OW 2825   1.726   1.997   2.385
  936SOL    HW1 2826   1.799   1.980   2.318
  936SOL    HW2 2827   1.695   1.910   2.423
  937SOL     OW 2828   1.388   3.435   2.339
  937SOL    HW1 2829   1.455   3.447   2.265
  937SOL    HW2 2830   1.348   3.524   2.362
  938SOL     OW 2831   0.130   3.656   3.713
  938SOL    HW1 2832   0.089   3.582   3.766
  938SOL    HW2 2833   0.194   3.707   3.771
  939SOL     OW 2834   1.280   2.789   2.534
  939SOL    HW1 2835   1.340   2.708   2.536
  939SOL    HW2 2836   1.320   2.858   2.474
  940SOL     OW 2837   0.830   3.135   3.284
  940SOL    HW1 2838   0.825   3.168   3.379
  940SOL    HW2 2839   0.744   3.154   3.238
  941SOL     OW 2840   0.672   3.478   2.016
  941SOL    HW1 2841   0.681   3.488   1.917
  941SOL    HW2 2842   0.632   3.389   2.037
  942SOL     OW 2843   1.650   3.582   3.256
  942SOL    HW1 2844   1.703   3.592   3.172
  942SOL    HW2 2845   1.623   3.672   3.290
  943SOL     OW 2846   1.841   2.037   2.825
  943SOL    HW1 2847   1.880   1.952   2.789
  943SOL    HW2 2848   1.743   2.039   2.806
  944SOL     OW 2849   0.263   2.188   2.582
  944SOL    HW1 2850   0.184   2.239   2.548
  944SOL    HW2 2851   0.254   2.173   2.680
  945SOL     OW 2852   1.194   3.474   1.893
  945SOL    HW1 2853   1.200   3.381   1.930
  945SOL    HW2 2854   1.135   3.474   1.813
  946SOL     OW 2855   0.822   2.864   3.234
  946SOL    HW1 2856   0.862   2.863   3.142
  946SOL    HW2 2857   0.832   2.956   3.274
  947SOL     OW 2858   0.916   2.772   2.153
  947SOL    HW1 2859   0.979   2.810   2.085
  947SOL    HW2 2860   0.956   2.689   2.192
  948SOL     OW 2861   1.504   3.469   1.906
  948SOL    HW1 2862   1.412   3.506   1.913
  948SOL    HW2 2863   1.542   3.489   1.816
  949SOL     OW 2864   0.372   3.150   3.352
  949SOL    HW1 2865   0.359   3.243   3.318
  949SOL    HW2 2866   0.288   3.098   3.339
  950SOL     OW 2867   1.614   3.154   3.151
  950SOL    HW1 2868   1.674   3.157   3.231
  950SOL    HW2 2869   1.539   3.218   3.164
  951SOL     OW 2870   1.039   2.960   2.558
  951SOL    HW1 2871   0.969   2.913   2.612
  951SOL    HW2 2872   1.098   2.892   2.515
  952SOL     OW 2873   1.014   2.098   2.833
  952SOL    HW1 2874   1.006   2.062   2.740
  952SOL    HW2 2875   1.012   2.022   2.898
  953SOL     OW 2876   0.590   3.349   2.353
  953SOL    HW1 2877   0.632   3.291   2.283
  953SOL    HW2 2878   0.546   3.428   2.309
  954SOL     OW 2879   1.709   2.247   3.243
  954SOL    HW1 2880   1.782   2.316   3.247
  954SOL    HW2 2881   1.737   2.172   3.184
  955SOL     OW 2882   0.255   3.210   2.152
  955SOL    HW1 2883   0.159   3.211   2.125
  955SOL    HW2 2884   0.267   3.263   2.236
  956SOL     OW 2885   0.105   2.875   3.588
  956SOL    HW1 2886   0.028   2.842   3.642
  956SOL    HW2 2887   0.190   2.845   3.630
  957SOL     OW 2888   0.672   2.065   3.351
  957SOL    HW1 2889   0.762   2.049   3.311
  957SOL    HW2 2890   0.680   2.070   3.450
  958SOL     OW 2891   0.075   2.207   1.895
  958SOL    HW1 2892  -0.017   2.179   1.866
  958SOL    HW2 2893   0.106   2.284   1.839
  959SOL     OW 2894   1.440   2.718   3.260
  959SOL    HW1 2895   1.383   2.770   3.197
  959SOL    HW2 2896   1.536   2.730   3.236
  960SOL     OW 2897   0.072   2.028   2.180
  960SOL    HW1 2898   0.055   2.111   2.126
  960SOL    HW2 2899   0.162   1.991   2.158
  961SOL     OW 2900   1.183   3.197   1.981
  961SOL    HW1 2901   1.084   3.186   1.983
  961SOL    HW2 2902   1.217   3.212   2.074
  962SOL     OW 2903   0.613   2.704   3.293
  962SOL    HW1 2904   0.669   2.785   3.276
  962SOL    HW2 2905   0.672   2.624   3.296
  963SOL     OW 2906   1.493   3.629   2.821
  963SOL    HW1 2907   1.526   3.693   2.752
  963SOL    HW2 2908   1.559   3.623   2.896
  964SOL     OW 2909   0.716   2.427   3.570
  964SOL    HW1 2910   0.735   2.492   3.644
  964SOL    HW2 2911   0.776   2.347   3.579
  965SOL     OW 2912   1.450   3.082   3.495
  965SOL    HW1 2913   1.441   3.072   3.594
  965SOL    HW2 2914   1.546   3.075   3.469
  966SOL     OW 2915   0.390   3.603   3.422
  966SOL    HW1 2916   0.299   3.644   3.420
  966SOL    HW2 2917   0.383   3.509   3.454
  967SOL     OW 2918   1.674   2.745   3.116
  967SOL    HW1 2919   1.647   2.656   3.079
  967SOL    HW2 2920   1.675   2.813   3.043
  968SOL     OW 2921   1.225   2.187   2.311
  968SOL    HW1 2922   1.290   2.113   2.300
  968SOL    HW2 2923   1.245   2.237   2.395
  969SOL     OW 2924   0.594   2.607   2.514
  969SOL    HW1 2925   0.644   2.692   2.495
  969SOL    HW2 2926   0.506   2.609   2.466
  970SOL     OW 2927   1.777   2.204   3.504
  970SOL    HW1 2928   1.760   2.235   3.410
  970SOL    HW2 2929   1.693   2.167   3.542
  971SOL     OW 2930   1.730   2.796   3.379
  971SOL    HW1 2931   1.768   2.887   3.394
  971SOL    HW2 2932   1.722   2.779   3.280
  972SOL     OW 2933   0.859   3.236   1.878
  972SOL    HW1 2934   0.813   3.251   1.966
  972SOL    HW2 2935   0.903   3.321   1.848
  973SOL     OW 2936   0.661   3.652   2.815
  973SOL    HW1 2937   0.615   3.740   2.802
  973SOL    HW2 2938   0.760   3.664   2.808
  974SOL     OW 2939   0.859   2.818   2.723
  974SOL    HW1 2940   0.913   2.749   2.771
  974SOL    HW2 2941   0.827   2.887   2.789
  975SOL     OW 2942   1.083   2.846   1.949
  975SOL    HW1 2943   1.060   2.899   1.867
  975SOL    HW2 2944   1.164   2.790   1.930
  976SOL     OW 2945   1.861   3.431   2.713
  976SOL    HW1 2946   1.790   3.419   2.643
  976SOL    HW2 2947   1.862   3.352   2.773
  977SOL     OW 2948   0.221   3.176   3.706
  977SOL    HW1 2949   0.156   3.103   3.685
  977SOL    HW2 2950   0.225   3.190   3.804
  978SOL     OW 2951   0.079   3.102   2.515
  978SOL    HW1 2952   0.078   3.055   2.603
  978SOL    HW2 2953   0.161   3.074   2.464
  979SOL     OW 2954   0.672   3.253   3.486
  979SOL    HW1 2955   0.594   3.203   3.524
  979SOL    HW2 2956   0.669   3.348   3.517
  980SOL     OW 2957   1.824   2.054   3.089
  980SOL    HW1 2958   1.820   1.964   3.133
  980SOL    HW2 2959   1.827   2.043   2.990
  981SOL     OW 2960   0.428   2.286   2.382
  981SOL    HW1 2961   0.458   2.214   2.320
  981SOL    HW2 2962   0.389   2.246   2.465
  982SOL     OW 2963   1.705   3.349   2.966
  982SOL    HW1 2964   1.612   3.324   2.939
  982SOL    HW2 2965   1.731   3.299   3.048
  983SOL     OW 2966   0.317   2.409   3.142
  983SOL    HW1 2967   0.355   2.350   3.214
  983SOL    HW2 2968   0.357   2.383   3.054
  984SOL     OW 2969   0.812   3.448   2.549
  984SOL    HW1 2970   0.844   3.458   2.455
  984SOL    HW2 2971   0.733   3.386   2.551
  985SOL     OW 2972   1.424   2.076   2.974
  985SOL    HW1 2973   1.476   2.011   3.029
  985SOL    HW2 2974   1.375   2.139   3.035
  986SOL     OW 2975   1.001   1.896   3.016
  986SOL    HW1 2976   0.938   1.824   2.985
  986SOL    HW2 2977   1.094   1.860   3.016
  987SOL     OW 2978   0.770   3.192   2.163
  987SOL    HW1 2979   0.724   3.105   2.180
  987SOL    HW2 2980   0.861   3.189   2.204
  988SOL     OW 2981   0.618   3.429   3.146
  988SOL    HW1 2982   0.613   3.511   3.203
  988SOL    HW2 2983   0.707   3.426   3.101
  989SOL     OW 2984   1.352   1.914   2.030
  989SOL    HW1 2985   1.387   1.873   1.946
  989SOL    HW2 2986   1.262   1.876   2.050
  990SOL     OW 2987   1.300   2.315   2.553
  990SOL    HW1 2988   1.241   2.395   2.557
  990SOL    HW2 2989   1.315   2.280   2.646
  991SOL     OW 2990   1.593   2.083   2.744
  991SOL    HW1 2991   1.509   2.082   2.798
  991SOL    HW2 2992   1.595   2.166   2.688
  992SOL     OW 2993   0.039   2.939   2.162
  992SOL    HW1 2994   0.138   2.928   2.153
  992SOL    HW2 2995  -0.001   2.853   2.194
  993SOL     OW 2996   0.875   3.508   2.199
  993SOL    HW1 2997   0.798   3.473   2.145
  993SOL    HW2 2998   0.843   3.579   2.261
  994SOL     OW 2999   0.230   2.490   3.837
  994SOL    HW1 3000   0.137   2.488   3.874
  994SOL    HW2 3001   0.231   2.451   3.745
  995SOL     OW 3002   0.225   2.137   4.720
  995SOL    HW1 3003   0.260   2.120   4.812
  995SOL    HW2 3004   0.137   2.092   4.708
  996SOL     OW 3005   0.019   2.230   4.371
  996SOL    HW1 3006  -0.063   2.273   4.410
  996SOL    HW2 3007  -0.009   2.157   4.308
  997SOL     OW 3008   0.569   3.137   4.889
  997SOL    HW1 3009   0.476   3.130   4.852
  997SOL    HW2 3010   0.580   3.226   4.933
  998SOL     OW 3011   1.555   3.373   4.427
  998SOL    HW1 3012   1.498   3.357   4.508
  998SOL    HW2 3013   1.496   3.383   4.347
  999SOL     OW 3014   1.135   2.565   4.441
  999SOL    HW1 3015   1.192   2.643   4.416
  999SOL    HW2 3016   1.075   2.591   4.517
 1000SOL     OW 3017   1.755   2.469   3.955
 1000SOL    HW1 3018   1.743   2.456   3.856
 1000SOL    HW2 3019   1.725   2.388   4.004
 1001SOL     OW 3020   0.768   3.006   4.747
 1001SOL    HW1 3021   0.690   3.023   4.807
 1001SOL    HW2 3022   0.802   3.093   4.711
 1002SOL     OW 3023   0.685   2.874   4.389
 1002SOL    HW1 3024   0.754   2.858   4.459
 1002SOL    HW2 3025   0.612   2.931   4.427
 1003SOL     OW 3026   0.335   3.297   4.785
 1003SOL    HW1 3027   0.257   3.266   4.732
 1003SOL    HW2 3028   0.393   3.355   4.728
 1004SOL     OW 3029   1.603   2.309   4.461
 1004SOL    HW1 3030   1.529   2.355   4.411
 1004SOL    HW2 3031   1.654   2.377   4.514
 1005SOL     OW 3032   0.231   3.575   4.207
 1005SOL    HW1 3033   0.265   3.652   4.261
 1005SOL    HW2 3034   0.275   3.575   4.117
 1006SOL     OW 3035   0.230   3.296   4.262
 1006SOL    HW1 3036   0.204   3.392   4.262
 1006SOL    HW2 3037   0.159   3.242   4.307
 1007SOL     OW 3038   0.240   2.953   4.610
 1007SOL    HW1 3039   0.254   2.869   4.662
 1007SOL    HW2 3040   0.185   3.017   4.665
 1008SOL     OW 3041   0.606   2.826   3.847
 1008SOL    HW1 3042   0.613   2.910   3.793
 1008SOL    HW2 3043   0.652   2.839   3.935
 1009SOL     OW 3044   0.122   2.505   4.287
 1009SOL    HW1 3045   0.077   2.417   4.304
 1009SOL    HW2 3046   0.121   2.559   4.371
 1010SOL     OW 3047   1.842   3.629   4.083
 1010SOL    HW1 3048   1.896   3.600   4.163
 1010SOL    HW2 3049   1.872   3.719   4.054
 1011SOL     OW 3050   0.027   3.458   3.841
 1011SOL    HW1 3051   0.008   3.362   3.862
 1011SOL    HW2 3052  -0.006   3.516   3.916
 1012SOL     OW 3053   1.689   2.784   4.336
 1012SOL    HW1 3054   1.784   2.755   4.344
 1012SOL    HW2 3055   1.681   2.849   4.261
 1013SOL     OW 3056   1.641   2.970   4.156
 1013SOL    HW1 3057   1.727   2.972   4.104
 1013SOL    HW2 3058   1.655   3.017   4.244
 1014SOL     OW 3059   0.613   3.227   4.450
 1014SOL    HW1 3060   0.564   3.140   4.459
 1014SOL    HW2 3061   0.590   3.270   4.363
 1015SOL     OW 3062   0.809   1.866   4.226
 1015SOL    HW1 3063   0.849   1.957   4.217
 1015SOL    HW2 3064   0.709   1.874   4.232
 1016SOL     OW 3065   0.197   2.838   4.988
 1016SOL    HW1 3066   0.286   2.793   4.974
 1016SOL    HW2 3067   0.124   2.773   4.969
 1017SOL     OW 3068   1.525   2.861   3.914
 1017SOL    HW1 3069   1.462   2.785   3.927
 1017SOL    HW2 3070   1.573   2.879   4.000
 1018SOL     OW 3071   1.466   3.279   4.677
 1018SOL    HW1 3072   1.407   3.285   4.757
 1018SOL    HW2 3073   1.451   3.191   4.631
 1019SOL     OW 3074   1.667   3.576   4.296
 1019SOL    HW1 3075   1.626   3.553   4.208
 1019SOL    HW2 3076   1.649   3.502   4.361
 1020SOL     OW 3077   0.598   2.591   3.994
 1020SOL    HW1 3078   0.622   2.660   3.926
 1020SOL    HW2 3079   0.520   2.624   4.048
 1021SOL     OW 3080   1.281   2.207   4.668
 1021SOL    HW1 3081   1.195   2.157   4.655
 1021SOL    HW2 3082   1.343   2.153   4.724
 1022SOL     OW 3083   1.576   3.524   4.031
 1022SOL    HW1 3084   1.665   3.570   4.034
 1022SOL    HW2 3085   1.555   3.500   3.936
 1023SOL     OW 3086   1.041   2.563   4.153
 1023SOL    HW1 3087   1.067   2.559   4.249
 1023SOL    HW2 3088   0.956   2.512   4.139
 1024SOL     OW 3089   0.076   2.673   4.513
 1024SOL    HW1 3090   0.175   2.661   4.522
 1024SOL    HW2 3091   0.052   2.768   4.534
 1025SOL     OW 3092   0.865   2.210   3.919
 1025SOL    HW1 3093   0.924   2.273   3.870
 1025SOL    HW2 3094   0.884   2.116   3.890
 1026SOL     OW 3095   1.362   3.006   4.269
 1026SOL    HW1 3096   1.445   2.977   4.221
 1026SOL    HW2 3097   1.313   3.073   4.213
 1027SOL     OW 3098   0.550   2.058   4.609
 1027SOL    HW1 3099   0.545   2.053   4.709
 1027SOL    HW2 3100   0.552   2.154   4.580
 1028SOL     OW 3101   1.008   3.318   4.201
 1028SOL    HW1 3102   0.962   3.390   4.149
 1028SOL    HW2 3103   1.004   3.338   4.299
 1029SOL     OW 3104   0.351   3.663   4.577
 1029SOL    HW1 3105   0.401   3.577   4.583
 1029SOL    HW2 3106   0.416   3.740   4.574
 1030SOL     OW 3107   1.795   2.928   4.597
 1030SOL    HW1 3108   1.733   2.913   4.521
 1030SOL    HW2 3109   1.743   2.939   4.682
 1031SOL     OW 3110   0.321   2.805   3.966
 1031SOL    HW1 3111   0.403   2.844   3.924
 1031SOL    HW2 3112   0.294   2.723   3.917
 1032SOL     OW 3113   1.458   2.597   4.452
 1032SOL    HW1 3114   1.453   2.532   4.527
 1032SOL    HW2 3115   1.538   2.656   4.465
 1033SOL     OW 3116   1.111   3.638   3.961
 1033SOL    HW1 3117   1.051   3.576   4.011
 1033SOL    HW2 3118   1.142   3.594   3.876
 1034SOL     OW 3119   1.632   3.239   3.805
 1034SOL    HW1 3120   1.600   3.333   3.795
 1034SOL    HW2 3121   1.556   3.176   3.793
 1035SOL     OW 3122   0.464   3.605   4.047
 1035SOL    HW1 3123   0.497   3.644   4.133
 1035SOL    HW2 3124   0.540   3.598   3.982
 1036SOL     OW 3125   1.400   1.969   4.150
 1036SOL    HW1 3126   1.376   1.932   4.060
 1036SOL    HW2 3127   1.499   1.985   4.154
 1037SOL     OW 3128   0.249   3.647   4.965
 1037SOL    HW1 3129   0.306   3.582   5.015
 1037SOL    HW2 3130   0.233   3.614   4.872
 1038SOL     OW 3131   0.940   3.560   4.628
 1038SOL    HW1 3132   1.020   3.503   4.649
 1038SOL    HW2 3133   0.891   3.520   4.551
 1039SOL     OW 3134   0.382   2.562   4.204
 1039SOL    HW1 3135   0.427   2.472   4.201
 1039SOL    HW2 3136   0.288   2.551   4.237
 1040SOL     OW 3137   0.614   1.984   3.841
 1040SOL    HW1 3138   0.712   1.962   3.848
 1040SOL    HW2 3139   0.583   1.967   3.748
 1041SOL     OW 3140   0.803   3.264   4.648
 1041SOL    HW1 3141   0.893   3.278   4.606
 1041SOL    HW2 3142   0.732   3.266   4.577
 1042SOL     OW 3143   0.922   2.365   4.623
 1042SOL    HW1 3144   0.897   2.356   4.527
 1042SOL    HW2 3145   0.970   2.283   4.654
 1043SOL     OW 3146   0.539   1.926   4.236
 1043SOL    HW1 3147   0.458   1.927   4.294
 1043SOL    HW2 3148   0.542   2.009   4.181
 1044SOL     OW 3149   1.434   3.050   3.765
 1044SOL    HW1 3150   1.466   2.974   3.822
 1044SOL    HW2 3151   1.342   3.077   3.795
 1045SOL     OW 3152   0.297   1.897   3.895
 1045SOL    HW1 3153   0.346   1.981   3.874
 1045SOL    HW2 3154   0.359   1.832   3.940
 1046SOL     OW 3155   0.935   2.098   4.204
 1046SOL    HW1 3156   0.887   2.139   4.126
 1046SOL    HW2 3157   1.034   2.096   4.185
 1047SOL     OW 3158   1.227   3.432   4.517
 1047SOL    HW1 3159   1.248   3.506   4.452
 1047SOL    HW2 3160   1.295   3.432   4.590
 1048SOL     OW 3161   0.459   3.014   4.465
 1048SOL    HW1 3162   0.388   2.987   4.530
 1048SOL    HW2 3163   0.433   2.986   4.372
 1049SOL     OW 3164   1.271   3.659   4.315
 1049SOL    HW1 3165   1.315   3.723   4.251
 1049SOL    HW2 3166   1.221   3.711   4.385
 1050SOL     OW 3167   1.032   2.411   3.740
 1050SOL    HW1 3168   0.991   2.493   3.701
 1050SOL    HW2 3169   1.096   2.437   3.813
 1051SOL     OW 3170   0.866   2.316   4.366
 1051SOL    HW1 3171   0.834   2.388   4.304
 1051SOL    HW2 3172   0.890   2.235   4.313
 1052SOL     OW 3173   1.017   1.901   4.477
 1052SOL    HW1 3174   0.945   1.906   4.408
 1052SOL    HW2 3175   0.993   1.832   4.546
 1053SOL     OW 3176   1.429   3.035   4.591
 1053SOL    HW1 3177   1.374   2.951   4.584
 1053SOL    HW2 3178   1.455   3.064   4.499
 1054SOL     OW 3179   1.466   2.452   4.716
 1054SOL    HW1 3180   1.436   2.357   4.723
 1054SOL    HW2 3181   1.539   2.468   4.782
 1055SOL     OW 3182   1.857   2.695   4.101
 1055SOL    HW1 3183   1.899   2.631   4.165
 1055SOL    HW2 3184   1.819   2.644   4.023
 1056SOL     OW 3185   0.488   3.247   3.898
 1056SOL    HW1 3186   0.401   3.232   3.945
 1056SOL    HW2 3187   0.471   3.273   3.803
 1057SOL     OW 3188   1.664   3.142   4.381
 1057SOL    HW1 3189   1.763   3.150   4.395
 1057SOL    HW2 3190   1.619   3.226   4.412
 1058SOL     OW 3191   1.390   2.437   3.802
 1058SOL    HW1 3192   1.336   2.416   3.883
 1058SOL    HW2 3193   1.481   2.396   3.811
 1059SOL     OW 3194   0.527   2.118   4.052
 1059SOL    HW1 3195   0.554   2.059   3.977
 1059SOL    HW2 3196   0.527   2.213   4.021
 1060SOL     OW 3197   1.111   3.057   4.824
 1060SOL    HW1 3198   1.071   3.101   4.905
 1060SOL    HW2 3199   1.070   3.094   4.741
 1061SOL     OW 3200   1.638   2.961   4.803
 1061SOL    HW1 3201   1.643   3.042   4.862
 1061SOL    HW2 3202   1.552   2.963   4.752
 1062SOL     OW 3203   0.705   2.912   4.092
 1062SOL    HW1 3204   0.691   2.919   4.191
 1062SOL    HW2 3205   0.789   2.861   4.074
 1063SOL     OW 3206   0.410   2.675   4.975
 1063SOL    HW1 3207   0.496   2.687   5.025
 1063SOL    HW2 3208   0.368   2.588   5.002
 1064SOL     OW 3209   0.367   2.962   4.225
 1064SOL    HW1 3210   0.360   3.045   4.169
 1064SOL    HW2 3211   0.371   2.882   4.165
 1065SOL     OW 3212   0.566   2.399   4.589
 1065SOL    HW1 3213   0.578   2.465   4.515
 1065SOL    HW2 3214   0.612   2.433   4.672
 1066SOL     OW 3215   1.252   3.210   4.112
 1066SOL    HW1 3216   1.302   3.287   4.152
 1066SOL    HW2 3217   1.157   3.212   4.144
 1067SOL     OW 3218   1.272   3.307   4.866
 1067SOL    HW1 3219   1.319   3.320   4.953
 1067SOL    HW2 3220   1.206   3.233   4.875
 1068SOL     OW 3221   1.582   2.501   4.196
 1068SOL    HW1 3222   1.551   2.562   4.269
 1068SOL    HW2 3223   1.632   2.553   4.127
 1069SOL     OW 3224   0.573   2.732   4.753
 1069SOL    HW1 3225   0.617   2.821   4.744
 1069SOL    HW2 3226   0.510   2.732   4.830
 1070SOL     OW 3227   1.360   2.724   4.769
 1070SOL    HW1 3228   1.285   2.724   4.703
 1070SOL    HW2 3229   1.397   2.632   4.778
 1071SOL     OW 3230   1.209   2.387   3.999
 1071SOL    HW1 3231   1.222   2.303   4.053
 1071SOL    HW2 3232   1.180   2.461   4.059
 1072SOL     OW 3233   0.307   2.075   4.955
 1072SOL    HW1 3234   0.284   2.112   5.045
 1072SOL    HW2 3235   0.277   1.980   4.949
 1073SOL     OW 3236   0.732   2.496   4.788
 1073SOL    HW1 3237   0.791   2.470   4.712
 1073SOL    HW2 3238   0.704   2.592   4.777
 1074SOL     OW 3239   0.307   1.925   4.342
 1074SOL    HW1 3240   0.296   2.019   4.375
 1074SOL    HW2 3241   0.302   1.862   4.419
 1075SOL     OW 3242   1.622   2.229   4.098
 1075SOL    HW1 3243   1.624   2.153   4.162
 1075SOL    HW2 3244   1.574   2.306   4.138
 1076SOL     OW 3245   1.023   2.628   4.690
 1076SOL    HW1 3246   1.038   2.649   4.786
 1076SOL    HW2 3247   0.993   2.533   4.681
 1077SOL     OW 3248   1.540   2.136   3.849
 1077SOL    HW1 3249   1.479   2.061   3.872
 1077SOL    HW2 3250   1.562   2.188   3.932
 1078SOL     OW 3251   1.303   2.700   3.766
 1078SOL    HW1 3252   1.337   2.607   3.781
 1078SOL    HW2 3253   1.321   2.727   3.671
 1079SOL     OW 3254   1.068   3.195   4.573
 1079SOL    HW1 3255   1.075   3.111   4.518
 1079SOL    HW2 3256   1.130   3.264   4.537
 1080SOL     OW 3257   0.319   2.672   4.673
 1080SOL    HW1 3258   0.412   2.708   4.678
 1080SOL    HW2 3259   0.313   2.587   4.725
 1081SOL     OW 3260   0.339   2.371   4.730
 1081SOL    HW1 3261   0.287   2.288   4.713
 1081SOL    HW2 3262   0.416   2.376   4.666
 1082SOL     OW 3263   1.160   2.069   5.201
 1082SOL    HW1 3264   1.160   2.133   5.278
 1082SOL    HW2 3265   1.188   2.117   5.118
 1083SOL     OW 3266   0.008   3.188   3.924
 1083SOL    HW1 3267  -0.085   3.209   3.893
 1083SOL    HW2 3268   0.018   3.089   3.937
 1084SOL     OW 3269   0.088   3.663   4.651
 1084SOL    HW1 3270   0.046   3.577   4.624
 1084SOL    HW2 3271   0.182   3.666   4.617
 1085SOL     OW 3272   0.504   3.430   4.634
 1085SOL    HW1 3273   0.570   3.504   4.643
 1085SOL    HW2 3274   0.548   3.351   4.592
 1086SOL     OW 3275   1.002   2.658   4.962
 1086SOL    HW1 3276   1.043   2.626   5.048
 1086SOL    HW2 3277   0.906   2.631   4.959
 1087SOL     OW 3278   0.040   2.406   4.838
 1087SOL    HW1 3279   0.125   2.373   4.797
 1087SOL    HW2 3280   0.053   2.421   4.936
 1088SOL     OW 3281   0.815   2.434   4.049
 1088SOL    HW1 3282   0.822   2.345   4.003
 1088SOL    HW2 3283   0.721   2.468   4.041
 1089SOL     OW 3284   1.657   2.466   4.930
 1089SOL    HW1 3285   1.619   2.397   4.992
 1089SOL    HW2 3286   1.739   2.430   4.886
 1090SOL     OW 3287   0.671   2.326   4.993
 1090SOL    HW1 3288   0.637   2.237   4.963
 1090SOL    HW2 3289   0.697   2.380   4.913
 1091SOL     OW 3290   0.473   2.362   3.915
 1091SOL    HW1 3291   0.534   2.442   3.919
 1091SOL    HW2 3292   0.378   2.393   3.922
 1092SOL     OW 3293   1.302   2.717   4.033
 1092SOL    HW1 3294   1.216   2.686   4.075
 1092SOL    HW2 3295   1.298   2.703   3.934
 1093SOL     OW 3296   1.759   3.609   4.878
 1093SOL    HW1 3297   1.820   3.639   4.805
 1093SOL    HW2 3298   1.721   3.520   4.856
 1094SOL     OW 3299   0.083   3.120   4.746
 1094SOL    HW1 3300   0.078   3.119   4.846
 1094SOL    HW2 3301   0.000   3.079   4.708
 1095SOL     OW 3302   1.726   1.997   4.247
 1095SOL    HW1 3303   1.799   1.980   4.180
 1095SOL    HW2 3304   1.695   1.910   4.285
 1096SOL     OW 3305   1.388   3.435   4.201
 1096SOL    HW1 3306   1.455   3.447   4.127
 1096SOL    HW2 3307   1.348   3.524   4.224
 1097SOL     OW 3308   1.280   2.789   4.396
 1097SOL    HW1 3309   1.340   2.708   4.398
 1097SOL    HW2 3310   1.320   2.858   4.336
 1098SOL     OW 3311   0.672   3.478   3.878
 1098SOL    HW1 3312   0.681   3.488   3.779
 1098SOL    HW2 3313   0.632   3.389   3.899
 1099SOL     OW 3314   1.841   2.037   4.687
 1099SOL    HW1 3315   1.880   1.952   4.651
 1099SOL    HW2 3316   1.743   2.039   4.668
 1100SOL     OW 3317   0.263   2.188   4.444
 1100SOL    HW1 3318   0.184   2.239   4.410
 1100SOL    HW2 3319   0.254   2.173   4.542
 1101SOL     OW 3320   1.194   3.474   3.755
 1101SOL    HW1 3321   1.200   3.381   3.792
 1101SOL    HW2 3322   1.135   3.474   3.675
 1102SOL     OW 3323   0.822   2.864   5.096
 1102SOL    HW1 3324   0.862   2.863   5.004
 1102SOL    HW2 3325   0.832   2.956   5.136
 1103SOL     OW 3326   0.916   2.772   4.015
 1103SOL    HW1 3327   0.979   2.810   3.947
 1103SOL    HW2 3328   0.956   2.689   4.054
 1104SOL     OW 3329   1.504   3.469   3.768
 1104SOL    HW1 3330   1.412   3.506   3.775
 1104SOL    HW2 3331   1.542   3.489   3.678
 1105SOL     OW 3332   1.039   2.960   4.420
 1105SOL    HW1 3333   0.969   2.913   4.474
 1105SOL    HW2 3334   1.098   2.892   4.377
 1106SOL     OW 3335   1.014   2.098   4.695
 1106SOL    HW1 3336   1.006   2.062   4.602
 1106SOL    HW2 3337   1.012   2.022   4.760
 1107SOL     OW 3338   0.590   3.349   4.215
 1107SOL    HW1 3339   0.632   3.291   4.145
 1107SOL    HW2 3340   0.546   3.428   4.171
 1108SOL     OW 3341   1.709   2.247   5.105
 1108SOL    HW1 3342   1.782   2.316   5.109
 1108SOL    HW2 3343   1.737   2.172   5.046
 1109SOL     OW 3344   0.255   3.210   4.014
 1109SOL    HW1 3345   0.159   3.211   3.987
 1109SOL    HW2 3346   0.267   3.263   4.098
 1110SOL     OW 3347   0.075   2.207   3.757
 1110SOL    HW1 3348  -0.017   2.179   3.728
 1110SOL    HW2 3349   0.106   2.284   3.701
 1111SOL     OW 3350   0.072   2.028   4.042
 1111SOL    HW1 3351   0.055   2.111   3.988
 1111SOL    HW2 3352   0.162   1.991   4.020
 1112SOL     OW 3353   1.183   3.197   3.843
 1112SOL    HW1 3354   1.084   3.186   3.845
 1112SOL    HW2 3355   1.217   3.212   3.936
 1113SOL     OW 3356   1.493   3.629   4.683
 1113SOL    HW1 3357   1.526   3.693   4.614
 1113SOL    HW2 3358   1.559   3.623   4.758
 1114SOL     OW 3359   1.674   2.745   4.978
 1114SOL    HW1 3360   1.647   2.656   4.941
 1114SOL    HW2 3361   1.675   2.813   4.905
 1115SOL     OW 3362   1.225   2.187   4.173
 1115SOL    HW1 3363   1.290   2.113   4.162
 1115SOL    HW2 3364   1.245   2.237   4.257
 1116SOL     OW 3365   0.594   2.607   4.376
 1116SOL    HW1 3366   0.644   2.692   4.357
 1116SOL    HW2 3367   0.506   2.609   4.328
 1117SOL     OW 3368   1.730   2.796   5.241
 1117SOL    HW1 3369   1.768   2.887   5.256
 1117SOL    HW2 3370   1.722   2.779   5.142
 1118SOL     OW 3371   0.859   3.236   3.740
 1118SOL    HW1 3372   0.813   3.251   3.828
 1118SOL    HW2 3373   0.903   3.321   3.710
 1119SOL     OW 3374   0.661   3.652   4.677
 1119SOL    HW1 3375   0.615   3.740   4.664
 1119SOL    HW2 3376   0.760   3.664   4.670
 1120SOL     OW 3377   0.859   2.818   4.585
 1120SOL    HW1 3378   0.913   2.749   4.633
 1120SOL    HW2 3379   0.827   2.887   4.651
 1121SOL     OW 3380   1.083   2.846   3.811
 1121SOL    HW1 3381   1.060   2.899   3.729
 1121SOL    HW2 3382   1.164   2.790   3.792
 1122SOL     OW 3383   1.861   3.431   4.575
 1122SOL    HW1 3384   1.790   3.419   4.505
 1122SOL    HW2 3385   1.862   3.352   4.635
 1123SOL     OW 3386   0.079   3.102   4.377
 1123SOL    HW1 3387   0.078   3.055   4.465
 1123SOL    HW2 3388   0.161   3.074   4.326
 1124SOL     OW 3389   1.824   2.054   4.951
 1124SOL    HW1 3390   1.820   1.964   4.995
 1124SOL    HW2 3391   1.827   2.043   4.852
 1125SOL     OW 3392   0.428   2.286   4.244
 1125SOL    HW1 3393   0.458   2.214   4.182
 1125SOL    HW2 3394   0.389   2.246   4.327
 1126SOL     OW 3395   1.705   3.349   4.828
 1126SOL    HW1 3396   1.612   3.324   4.801
 1126SOL    HW2 3397   1.731   3.299   4.910
 1127SOL     OW 3398   0.812   3.448   4.411
 1127SOL    HW1 3399   0.844   3.458   4.317
 1127SOL    HW2 3400   0.733   3.386   4.413
 1128SOL     OW 3401   1.424   2.076   4.836
 1128SOL    HW1 3402   1.476   2.011   4.891
 1128SOL    HW2 3403   1.375   2.139   4.897
 1129SOL     OW 3404   1.001   1.896   4.878
 1129SOL    HW1 3405   0.938   1.824   4.847
 1129SOL    HW2 3406   1.094   1.860   4.878
 1130SOL     OW 3407   0.770   3.192   4.025
 1130SOL    HW1 3408   0.724   3.105   4.042
 1130SOL    HW2 3409   0.861   3.189   4.066
 1131SOL     OW 3410   1.352   1.914   3.892
 1131SOL    HW1 3411   1.387   1.873   3.808
 1131SOL    HW2 3412   1.262   1.876   3.912
 1132SOL     OW 3413   1.300   2.315   4.415
 1132SOL    HW1 3414   1.241   2.395   4.419
 1132SOL    HW2 3415   1.315   2.280   4.508
 1133SOL     OW 3416   1.593   2.083   4.606
 1133SOL    HW1 3417   1.509   2.082   4.660
 1133SOL    HW2 3418   1.595   2.166   4.550
 1134SOL     OW 3419   0.039   2.939   4.024
 1134SOL    HW1 3420   0.138   2.928   4.015
 1134SOL    HW2 3421  -0.001   2.853   4.056
 1135SOL     OW 3422   0.875   3.508   4.061
 1135SOL    HW1 3423   0.798   3.473   4.007
 1135SOL    HW2 3424   0.843   3.579   4.123
 1136SOL     OW 3425   0.230   4.352   0.113
 1136SOL    HW1 3426   0.137   4.350   0.150
 1136SOL    HW2 3427   0.231   4.313   0.021
 1137SOL     OW 3428   0.225   3.999   0.996
 1137SOL    HW1 3429   0.260   3.982   1.088
 1137SOL    HW2 3430   0.137   3.954   0.984
 1138SOL     OW 3431   0.019   4.092   0.647
 1138SOL    HW1 3432  -0.063   4.135   0.686
 1138SOL    HW2 3433  -0.009   4.019   0.584
 1139SOL     OW 3434   1.135   4.427   0.717
 1139SOL    HW1 3435   1.192   4.505   0.692
 1139SOL    HW2 3436   1.075   4.453   0.793
 1140SOL     OW 3437   1.755   4.331   0.231
 1140SOL    HW1 3438   1.743   4.318   0.132
 1140SOL    HW2 3439   1.725   4.250   0.280
 1141SOL     OW 3440   0.768   4.868   1.023
 1141SOL    HW1 3441   0.690   4.885   1.083
 1141SOL    HW2 3442   0.802   4.955   0.987
 1142SOL     OW 3443   0.850   4.522   1.823
 1142SOL    HW1 3444   0.846   4.598   1.888
 1142SOL    HW2 3445   0.872   4.558   1.732
 1143SOL     OW 3446   0.685   4.736   0.665
 1143SOL    HW1 3447   0.754   4.720   0.735
 1143SOL    HW2 3448   0.612   4.793   0.703
 1144SOL     OW 3449   0.438   4.116   1.499
 1144SOL    HW1 3450   0.520   4.060   1.508
 1144SOL    HW2 3451   0.357   4.058   1.503
 1145SOL     OW 3452   1.603   4.171   0.737
 1145SOL    HW1 3453   1.529   4.217   0.687
 1145SOL    HW2 3454   1.654   4.239   0.790
 1146SOL     OW 3455   0.240   4.815   0.886
 1146SOL    HW1 3456   0.254   4.731   0.938
 1146SOL    HW2 3457   0.185   4.879   0.941
 1147SOL     OW 3458   0.606   4.688   0.123
 1147SOL    HW1 3459   0.613   4.772   0.069
 1147SOL    HW2 3460   0.652   4.701   0.211
 1148SOL     OW 3461   1.594   3.838   1.480
 1148SOL    HW1 3462   1.576   3.905   1.408
 1148SOL    HW2 3463   1.591   3.884   1.569
 1149SOL     OW 3464   0.122   4.367   0.563
 1149SOL    HW1 3465   0.077   4.279   0.580
 1149SOL    HW2 3466   0.121   4.421   0.647
 1150SOL     OW 3467   1.689   4.646   0.612
 1150SOL    HW1 3468   1.784   4.617   0.620
 1150SOL    HW2 3469   1.681   4.711   0.537
 1151SOL     OW 3470   1.641   4.832   0.432
 1151SOL    HW1 3471   1.727   4.834   0.380
 1151SOL    HW2 3472   1.655   4.879   0.520
 1152SOL     OW 3473   0.113   4.461   1.597
 1152SOL    HW1 3474   0.201   4.448   1.642
 1152SOL    HW2 3475   0.100   4.558   1.575
 1153SOL     OW 3476   0.613   5.089   0.726
 1153SOL    HW1 3477   0.564   5.002   0.735
 1153SOL    HW2 3478   0.590   5.132   0.639
 1154SOL     OW 3479   1.293   4.952   1.423
 1154SOL    HW1 3480   1.330   4.879   1.365
 1154SOL    HW2 3481   1.345   4.957   1.508
 1155SOL     OW 3482   0.809   3.728   0.502
 1155SOL    HW1 3483   0.849   3.819   0.493
 1155SOL    HW2 3484   0.709   3.736   0.508
 1156SOL     OW 3485   0.197   4.700   1.264
 1156SOL    HW1 3486   0.286   4.655   1.250
 1156SOL    HW2 3487   0.124   4.635   1.245
 1157SOL     OW 3488   1.525   4.723   0.190
 1157SOL    HW1 3489   1.462   4.647   0.203
 1157SOL    HW2 3490   1.573   4.741   0.276
 1158SOL     OW 3491   0.317   3.975   1.801
 1158SOL    HW1 3492   0.388   4.046   1.807
 1158SOL    HW2 3493   0.229   4.014   1.829
 1159SOL     OW 3494   0.598   4.453   0.270
 1159SOL    HW1 3495   0.622   4.522   0.202
 1159SOL    HW2 3496   0.520   4.486   0.324
 1160SOL     OW 3497   1.281   4.069   0.944
 1160SOL    HW1 3498   1.195   4.019   0.931
 1160SOL    HW2 3499   1.343   4.015   1.000
 1161SOL     OW 3500   0.807   4.329   1.465
 1161SOL    HW1 3501   0.760   4.326   1.554
 1161SOL    HW2 3502   0.756   4.274   1.399
 1162SOL     OW 3503   1.394   4.193   1.674
 1162SOL    HW1 3504   1.374   4.236   1.762
 1162SOL    HW2 3505   1.472   4.131   1.683
 1163SOL     OW 3506   0.973   4.614   1.572
 1163SOL    HW1 3507   1.019   4.530   1.543
 1163SOL    HW2 3508   0.917   4.648   1.497
 1164SOL     OW 3509   0.991   4.134   1.242
 1164SOL    HW1 3510   0.914   4.168   1.296
 1164SOL    HW2 3511   0.957   4.083   1.163
 1165SOL     OW 3512   1.041   4.425   0.429
 1165SOL    HW1 3513   1.067   4.421   0.525
 1165SOL    HW2 3514   0.956   4.374   0.415
 1166SOL     OW 3515   0.076   4.535   0.789
 1166SOL    HW1 3516   0.175   4.523   0.798
 1166SOL    HW2 3517   0.052   4.630   0.810
 1167SOL     OW 3518   0.865   4.072   0.195
 1167SOL    HW1 3519   0.924   4.135   0.146
 1167SOL    HW2 3520   0.884   3.978   0.166
 1168SOL     OW 3521   1.719   4.309   1.831
 1168SOL    HW1 3522   1.693   4.398   1.795
 1168SOL    HW2 3523   1.717   4.241   1.758
 1169SOL     OW 3524   1.362   4.868   0.545
 1169SOL    HW1 3525   1.445   4.839   0.497
 1169SOL    HW2 3526   1.313   4.935   0.489
 1170SOL     OW 3527   0.550   3.920   0.885
 1170SOL    HW1 3528   0.545   3.915   0.985
 1170SOL    HW2 3529   0.552   4.016   0.856
 1171SOL     OW 3530   1.795   4.790   0.873
 1171SOL    HW1 3531   1.733   4.775   0.797
 1171SOL    HW2 3532   1.743   4.801   0.958
 1172SOL     OW 3533   0.321   4.667   0.242
 1172SOL    HW1 3534   0.403   4.706   0.200
 1172SOL    HW2 3535   0.294   4.585   0.193
 1173SOL     OW 3536   1.458   4.459   0.728
 1173SOL    HW1 3537   1.453   4.394   0.803
 1173SOL    HW2 3538   1.538   4.518   0.741
 1174SOL     OW 3539   0.202   4.009   1.498
 1174SOL    HW1 3540   0.122   4.069   1.485
 1174SOL    HW2 3541   0.192   3.960   1.584
 1175SOL     OW 3542   1.400   3.831   0.426
 1175SOL    HW1 3543   1.376   3.794   0.336
 1175SOL    HW2 3544   1.499   3.847   0.430
 1176SOL     OW 3545   0.382   4.424   0.480
 1176SOL    HW1 3546   0.427   4.334   0.477
 1176SOL    HW2 3547   0.288   4.413   0.513
 1177SOL     OW 3548   1.547   3.946   1.729
 1177SOL    HW1 3549   1.542   3.983   1.821
 1177SOL    HW2 3550   1.475   3.877   1.717
 1178SOL     OW 3551   0.614   3.846   0.117
 1178SOL    HW1 3552   0.712   3.824   0.124
 1178SOL    HW2 3553   0.583   3.829   0.024
 1179SOL     OW 3554   0.781   3.988   1.749
 1179SOL    HW1 3555   0.848   3.927   1.792
 1179SOL    HW2 3556   0.708   4.007   1.814
 1180SOL     OW 3557   1.351   4.314   1.433
 1180SOL    HW1 3558   1.379   4.271   1.518
 1180SOL    HW2 3559   1.376   4.410   1.434
 1181SOL     OW 3560   0.922   4.227   0.899
 1181SOL    HW1 3561   0.897   4.218   0.803
 1181SOL    HW2 3562   0.970   4.145   0.930
 1182SOL     OW 3563   0.539   3.788   0.512
 1182SOL    HW1 3564   0.458   3.789   0.570
 1182SOL    HW2 3565   0.542   3.871   0.457
 1183SOL     OW 3566   0.297   3.759   0.171
 1183SOL    HW1 3567   0.346   3.843   0.150
 1183SOL    HW2 3568   0.359   3.694   0.216
 1184SOL     OW 3569   0.935   3.960   0.480
 1184SOL    HW1 3570   0.887   4.001   0.402
 1184SOL    HW2 3571   1.034   3.958   0.461
 1185SOL     OW 3572   1.076   4.407   1.464
 1185SOL    HW1 3573   0.996   4.346   1.467
 1185SOL    HW2 3574   1.157   4.354   1.440
 1186SOL     OW 3575   0.459   4.876   0.741
 1186SOL    HW1 3576   0.388   4.849   0.806
 1186SOL    HW2 3577   0.433   4.848   0.648
 1187SOL     OW 3578   1.032   4.273   0.016
 1187SOL    HW1 3579   0.991   4.355  -0.023
 1187SOL    HW2 3580   1.096   4.299   0.089
 1188SOL     OW 3581   0.078   4.280   1.386
 1188SOL    HW1 3582   0.170   4.279   1.345
 1188SOL    HW2 3583   0.072   4.354   1.453
 1189SOL     OW 3584   0.561   3.946   1.147
 1189SOL    HW1 3585   0.599   3.862   1.184
 1189SOL    HW2 3586   0.473   3.965   1.191
 1190SOL     OW 3587   0.866   4.178   0.642
 1190SOL    HW1 3588   0.834   4.250   0.580
 1190SOL    HW2 3589   0.890   4.097   0.589
 1191SOL     OW 3590   1.017   3.763   0.753
 1191SOL    HW1 3591   0.945   3.768   0.684
 1191SOL    HW2 3592   0.993   3.694   0.822
 1192SOL     OW 3593   1.429   4.897   0.867
 1192SOL    HW1 3594   1.374   4.813   0.860
 1192SOL    HW2 3595   1.455   4.926   0.775
 1193SOL     OW 3596   1.466   4.314   0.992
 1193SOL    HW1 3597   1.436   4.219   0.999
 1193SOL    HW2 3598   1.539   4.330   1.058
 1194SOL     OW 3599   1.857   4.557   0.377
 1194SOL    HW1 3600   1.899   4.493   0.441
 1194SOL    HW2 3601   1.819   4.506   0.299
 1195SOL     OW 3602   1.390   4.299   0.078
 1195SOL    HW1 3603   1.336   4.278   0.159
 1195SOL    HW2 3604   1.481   4.258   0.087
 1196SOL     OW 3605   0.527   3.980   0.328
 1196SOL    HW1 3606   0.554   3.921   0.253
 1196SOL    HW2 3607   0.527   4.075   0.297
 1197SOL     OW 3608   1.754   4.947   1.588
 1197SOL    HW1 3609   1.845   4.908   1.575
 1197SOL    HW2 3610   1.762   5.043   1.612
 1198SOL     OW 3611   1.638   4.823   1.079
 1198SOL    HW1 3612   1.643   4.904   1.138
 1198SOL    HW2 3613   1.552   4.825   1.028
 1199SOL     OW 3614   0.915   3.813   1.402
 1199SOL    HW1 3615   0.940   3.793   1.307
 1199SOL    HW2 3616   0.987   3.869   1.444
 1200SOL     OW 3617   0.980   4.840   1.719
 1200SOL    HW1 3618   0.881   4.846   1.729
 1200SOL    HW2 3619   1.003   4.760   1.663
 1201SOL     OW 3620   0.705   4.774   0.368
 1201SOL    HW1 3621   0.691   4.781   0.467
 1201SOL    HW2 3622   0.789   4.723   0.350
 1202SOL     OW 3623   0.410   4.537   1.251
 1202SOL    HW1 3624   0.496   4.549   1.301
 1202SOL    HW2 3625   0.368   4.450   1.278
 1203SOL     OW 3626   1.274   4.110   1.262
 1203SOL    HW1 3627   1.295   4.184   1.326
 1203SOL    HW2 3628   1.185   4.127   1.219
 1204SOL     OW 3629   0.367   4.824   0.501
 1204SOL    HW1 3630   0.360   4.907   0.445
 1204SOL    HW2 3631   0.371   4.744   0.441
 1205SOL     OW 3632   0.566   4.261   0.865
 1205SOL    HW1 3633   0.578   4.327   0.791
 1205SOL    HW2 3634   0.612   4.295   0.948
 1206SOL     OW 3635   1.582   4.363   0.472
 1206SOL    HW1 3636   1.551   4.424   0.545
 1206SOL    HW2 3637   1.632   4.415   0.403
 1207SOL     OW 3638   0.402   4.475   1.598
 1207SOL    HW1 3639   0.470   4.530   1.551
 1207SOL    HW2 3640   0.442   4.387   1.625
 1208SOL     OW 3641   1.587   4.503   1.670
 1208SOL    HW1 3642   1.495   4.541   1.665
 1208SOL    HW2 3643   1.647   4.550   1.605
 1209SOL     OW 3644   1.013   3.829   1.770
 1209SOL    HW1 3645   1.019   3.914   1.718
 1209SOL    HW2 3646   1.045   3.753   1.713
 1210SOL     OW 3647   0.504   3.774   1.740
 1210SOL    HW1 3648   0.462   3.717   1.670
 1210SOL    HW2 3649   0.438   3.843   1.772
 1211SOL     OW 3650   0.573   4.594   1.029
 1211SOL    HW1 3651   0.617   4.683   1.020
 1211SOL    HW2 3652   0.510   4.594   1.106
 1212SOL     OW 3653   1.360   4.586   1.045
 1212SOL    HW1 3654   1.285   4.586   0.979
 1212SOL    HW2 3655   1.397   4.494   1.054
 1213SOL     OW 3656   1.209   4.249   0.275
 1213SOL    HW1 3657   1.222   4.165   0.329
 1213SOL    HW2 3658   1.180   4.323   0.335
 1214SOL     OW 3659   0.307   3.937   1.231
 1214SOL    HW1 3660   0.284   3.974   1.321
 1214SOL    HW2 3661   0.277   3.842   1.225
 1215SOL     OW 3662   0.037   5.034   1.282
 1215SOL    HW1 3663   0.090   4.985   1.350
 1215SOL    HW2 3664   0.059   5.132   1.287
 1216SOL     OW 3665   0.732   4.358   1.064
 1216SOL    HW1 3666   0.791   4.332   0.988
 1216SOL    HW2 3667   0.704   4.454   1.053
 1217SOL     OW 3668   1.728   4.659   1.854
 1217SOL    HW1 3669   1.682   4.652   1.765
 1217SOL    HW2 3670   1.666   4.703   1.920
 1218SOL     OW 3671   0.307   3.787   0.618
 1218SOL    HW1 3672   0.296   3.881   0.651
 1218SOL    HW2 3673   0.302   3.724   0.695
 1219SOL     OW 3674   1.622   4.091   0.374
 1219SOL    HW1 3675   1.624   4.015   0.438
 1219SOL    HW2 3676   1.574   4.168   0.414
 1220SOL     OW 3677   1.023   4.490   0.966
 1220SOL    HW1 3678   1.038   4.511   1.062
 1220SOL    HW2 3679   0.993   4.395   0.957
 1221SOL     OW 3680   0.350   4.622   1.804
 1221SOL    HW1 3681   0.426   4.666   1.852
 1221SOL    HW2 3682   0.385   4.575   1.722
 1222SOL     OW 3683   1.540   3.998   0.125
 1222SOL    HW1 3684   1.479   3.923   0.148
 1222SOL    HW2 3685   1.562   4.050   0.208
 1223SOL     OW 3686   1.303   4.562   0.042
 1223SOL    HW1 3687   1.337   4.469   0.057
 1223SOL    HW2 3688   1.321   4.589  -0.053
 1224SOL     OW 3689   0.319   4.534   0.949
 1224SOL    HW1 3690   0.412   4.570   0.954
 1224SOL    HW2 3691   0.313   4.449   1.001
 1225SOL     OW 3692   0.339   4.233   1.006
 1225SOL    HW1 3693   0.287   4.150   0.989
 1225SOL    HW2 3694   0.416   4.238   0.942
 1226SOL     OW 3695   1.138   4.104   1.678
 1226SOL    HW1 3696   1.093   4.167   1.742
 1226SOL    HW2 3697   1.231   4.135   1.661
 1227SOL     OW 3698   1.160   3.931   1.477
 1227SOL    HW1 3699   1.160   3.995   1.554
 1227SOL    HW2 3700   1.188   3.979   1.394
 1228SOL     OW 3701   1.002   4.520   1.238
 1228SOL    HW1 3702   1.043   4.488   1.324
 1228SOL    HW2 3703   0.906   4.493   1.235
 1229SOL     OW 3704   0.040   4.268   1.114
 1229SOL    HW1 3705   0.125   4.235   1.073
 1229SOL    HW2 3706   0.053   4.283   1.212
 1230SOL     OW 3707   0.189   4.244   1.722
 1230SOL    HW1 3708   0.248   4.204   1.652
 1230SOL    HW2 3709   0.131   4.315   1.681
 1231SOL     OW 3710   1.369   4.674   1.660
 1231SOL    HW1 3711   1.408   4.763   1.680
 1231SOL    HW2 3712   1.379   4.654   1.563
 1232SOL     OW 3713   0.815   4.296   0.325
 1232SOL    HW1 3714   0.822   4.207   0.279
 1232SOL    HW2 3715   0.721   4.330   0.317
 1233SOL     OW 3716   1.657   4.328   1.206
 1233SOL    HW1 3717   1.619   4.259   1.268
 1233SOL    HW2 3718   1.739   4.292   1.162
 1234SOL     OW 3719   0.671   4.188   1.269
 1234SOL    HW1 3720   0.637   4.099   1.239
 1234SOL    HW2 3721   0.697   4.242   1.189
 1235SOL     OW 3722   0.473   4.224   0.191
 1235SOL    HW1 3723   0.534   4.304   0.195
 1235SOL    HW2 3724   0.378   4.255   0.198
 1236SOL     OW 3725   0.159   4.861   1.466
 1236SOL    HW1 3726   0.181   4.800   1.542
 1236SOL    HW2 3727   0.169   4.812   1.380
 1237SOL     OW 3728   1.347   4.783   1.234
 1237SOL    HW1 3729   1.371   4.720   1.160
 1237SOL    HW2 3730   1.257   4.823   1.216
 1238SOL     OW 3731   1.302   4.579   0.309
 1238SOL    HW1 3732   1.216   4.548   0.351
 1238SOL    HW2 3733   1.298   4.565   0.210
 1239SOL     OW 3734   0.083   4.982   1.022
 1239SOL    HW1 3735   0.078   4.981   1.122
 1239SOL    HW2 3736   0.000   4.941   0.984
 1240SOL     OW 3737   0.903   3.810   0.133
 1240SOL    HW1 3738   0.954   3.811   0.047
 1240SOL    HW2 3739   0.959   3.768   0.204
 1241SOL     OW 3740   1.726   3.859   0.523
 1241SOL    HW1 3741   1.799   3.842   0.456
 1241SOL    HW2 3742   1.695   3.772   0.561
 1242SOL     OW 3743   1.280   4.651   0.672
 1242SOL    HW1 3744   1.340   4.570   0.674
 1242SOL    HW2 3745   1.320   4.720   0.612
 1243SOL     OW 3746   1.841   3.899   0.963
 1243SOL    HW1 3747   1.880   3.814   0.927
 1243SOL    HW2 3748   1.743   3.901   0.944
 1244SOL     OW 3749   0.263   4.050   0.720
 1244SOL    HW1 3750   0.184   4.101   0.686
 1244SOL    HW2 3751   0.254   4.035   0.818
 1245SOL     OW 3752   0.822   4.726   1.372
 1245SOL    HW1 3753   0.862   4.725   1.280
 1245SOL    HW2 3754   0.832   4.818   1.412
 1246SOL     OW 3755   0.916   4.634   0.291
 1246SOL    HW1 3756   0.979   4.672   0.223
 1246SOL    HW2 3757   0.956   4.551   0.330
 1247SOL     OW 3758   0.372   5.012   1.490
 1247SOL    HW1 3759   0.359   5.105   1.456
 1247SOL    HW2 3760   0.288   4.960   1.477
 1248SOL     OW 3761   1.614   5.016   1.289
 1248SOL    HW1 3762   1.674   5.019   1.369
 1248SOL    HW2 3763   1.539   5.080   1.302
 1249SOL     OW 3764   1.039   4.822   0.696
 1249SOL    HW1 3765   0.969   4.775   0.750
 1249SOL    HW2 3766   1.098   4.754   0.653
 1250SOL     OW 3767   1.014   3.960   0.971
 1250SOL    HW1 3768   1.006   3.924   0.878
 1250SOL    HW2 3769   1.012   3.884   1.036
 1251SOL     OW 3770   1.709   4.109   1.381
 1251SOL    HW1 3771   1.782   4.178   1.385
 1251SOL    HW2 3772   1.737   4.034   1.322
 1252SOL     OW 3773   0.105   4.737   1.726
 1252SOL    HW1 3774   0.028   4.704   1.780
 1252SOL    HW2 3775   0.190   4.707   1.768
 1253SOL     OW 3776   0.672   3.927   1.489
 1253SOL    HW1 3777   0.762   3.911   1.449
 1253SOL    HW2 3778   0.680   3.932   1.588
 1254SOL     OW 3779   0.075   4.069   0.033
 1254SOL    HW1 3780  -0.017   4.041   0.004
 1254SOL    HW2 3781   0.106   4.146  -0.023
 1255SOL     OW 3782   1.440   4.580   1.398
 1255SOL    HW1 3783   1.383   4.632   1.335
 1255SOL    HW2 3784   1.536   4.592   1.374
 1256SOL     OW 3785   0.072   3.890   0.318
 1256SOL    HW1 3786   0.055   3.973   0.264
 1256SOL    HW2 3787   0.162   3.853   0.296
 1257SOL     OW 3788   0.613   4.566   1.431
 1257SOL    HW1 3789   0.669   4.647   1.414
 1257SOL    HW2 3790   0.672   4.486   1.434
 1258SOL     OW 3791   0.716   4.289   1.708
 1258SOL    HW1 3792   0.735   4.354   1.782
 1258SOL    HW2 3793   0.776   4.209   1.717
 1259SOL     OW 3794   1.450   4.944   1.633
 1259SOL    HW1 3795   1.441   4.934   1.732
 1259SOL    HW2 3796   1.546   4.937   1.607
 1260SOL     OW 3797   1.674   4.607   1.254
 1260SOL    HW1 3798   1.647   4.518   1.217
 1260SOL    HW2 3799   1.675   4.675   1.181
 1261SOL     OW 3800   1.225   4.049   0.449
 1261SOL    HW1 3801   1.290   3.975   0.438
 1261SOL    HW2 3802   1.245   4.099   0.533
 1262SOL     OW 3803   0.594   4.469   0.652
 1262SOL    HW1 3804   0.644   4.554   0.633
 1262SOL    HW2 3805   0.506   4.471   0.604
 1263SOL     OW 3806   1.777   4.066   1.642
 1263SOL    HW1 3807   1.760   4.097   1.548
 1263SOL    HW2 3808   1.693   4.029   1.680
 1264SOL     OW 3809   1.730   4.658   1.517
 1264SOL    HW1 3810   1.768   4.749   1.532
 1264SOL    HW2 3811   1.722   4.641   1.418
 1265SOL     OW 3812   0.859   4.680   0.861
 1265SOL    HW1 3813   0.913   4.611   0.909
 1265SOL    HW2 3814   0.827   4.749   0.927
 1266SOL     OW 3815   1.083   4.708   0.087
 1266SOL    HW1 3816   1.060   4.761   0.005
 1266SOL    HW2 3817   1.164   4.652   0.068
 1267SOL     OW 3818   0.079   4.964   0.653
 1267SOL    HW1 3819   0.078   4.917   0.741
 1267SOL    HW2 3820   0.161   4.936   0.602
 1268SOL     OW 3821   1.824   3.916   1.227
 1268SOL    HW1 3822   1.820   3.826   1.271
 1268SOL    HW2 3823   1.827   3.905   1.128
 1269SOL     OW 3824   0.428   4.148   0.520
 1269SOL    HW1 3825   0.458   4.076   0.458
 1269SOL    HW2 3826   0.389   4.108   0.603
 1270SOL     OW 3827   0.317   4.271   1.280
 1270SOL    HW1 3828   0.355   4.212   1.352
 1270SOL    HW2 3829   0.357   4.245   1.192
 1271SOL     OW 3830   1.424   3.938   1.112
 1271SOL    HW1 3831   1.476   3.873   1.167
 1271SOL    HW2 3832   1.375   4.001   1.173
 1272SOL     OW 3833   1.001   3.758   1.154
 1272SOL    HW1 3834   0.938   3.686   1.123
 1272SOL    HW2 3835   1.094   3.722   1.154
 1273SOL     OW 3836   0.770   5.054   0.301
 1273SOL    HW1 3837   0.724   4.967   0.318
 1273SOL    HW2 3838   0.861   5.051   0.342
 1274SOL     OW 3839   1.352   3.776   0.168
 1274SOL    HW1 3840   1.387   3.735   0.084
 1274SOL    HW2 3841   1.262   3.738   0.188
 1275SOL     OW 3842   1.300   4.177   0.691
 1275SOL    HW1 3843   1.241   4.257   0.695
 1275SOL    HW2 3844   1.315   4.142   0.784
 1276SOL     OW 3845   1.593   3.945   0.882
 1276SOL    HW1 3846   1.509   3.944   0.936
 1276SOL    HW2 3847   1.595   4.028   0.826
 1277SOL     OW 3848   0.039   4.801   0.300
 1277SOL    HW1 3849   0.138   4.790   0.291
 1277SOL    HW2 3850  -0.001   4.715   0.332
 1278SOL     OW 3851   0.230   4.352   1.975
 1278SOL    HW1 3852   0.137   4.350   2.012
 1278SOL    HW2 3853   0.231   4.313   1.883
 1279SOL     OW 3854   0.225   3.999   2.858
 1279SOL    HW1 3855   0.260   3.982   2.950
 1279SOL    HW2 3856   0.137   3.954   2.846
 1280SOL     OW 3857   0.019   4.092   2.509
 1280SOL    HW1 3858  -0.063   4.135   2.548
 1280SOL    HW2 3859  -0.009   4.019   2.446
 1281SOL     OW 3860   1.135   4.427   2.579
 1281SOL    HW1 3861   1.192   4.505   2.554
 1281SOL    HW2 3862   1.075   4.453   2.655
 1282SOL     OW 3863   1.755   4.331   2.093
 1282SOL    HW1 3864   1.743   4.318   1.994
 1282SOL    HW2 3865   1.725   4.250   2.142
 1283SOL     OW 3866   0.768   4.868   2.885
 1283SOL    HW1 3867   0.690   4.885   2.945
 1283SOL    HW2 3868   0.802   4.955   2.849
 1284SOL     OW 3869   0.850   4.522   3.685
 1284SOL    HW1 3870   0.846   4.598   3.750
 1284SOL    HW2 3871   0.872   4.558   3.594
 1285SOL     OW 3872   0.685   4.736   2.527
 1285SOL    HW1 3873   0.754   4.720   2.597
 1285SOL    HW2 3874   0.612   4.793   2.565
 1286SOL     OW 3875   0.438   4.116   3.361
 1286SOL    HW1 3876   0.520   4.060   3.370
 1286SOL    HW2 3877   0.357   4.058   3.365
 1287SOL     OW 3878   1.603   4.171   2.599
 1287SOL    HW1 3879   1.529   4.217   2.549
 1287SOL    HW2 3880   1.654   4.239   2.652
 1288SOL     OW 3881   0.240   4.815   2.748
 1288SOL    HW1 3882   0.254   4.731   2.800
 1288SOL    HW2 3883   0.185   4.879   2.803
 1289SOL     OW 3884   0.606   4.688   1.985
 1289SOL    HW1 3885   0.613   4.772   1.931
 1289SOL    HW2 3886   0.652   4.701   2.073
 1290SOL     OW 3887   1.594   3.838   3.342
 1290SOL    HW1 3888   1.576   3.905   3.270
 1290SOL    HW2 3889   1.591   3.884   3.431
 1291SOL     OW 3890   0.122   4.367   2.425
 1291SOL    HW1 3891   0.077   4.279   2.442
 1291SOL    HW2 3892   0.121   4.421   2.509
 1292SOL     OW 3893   1.689   4.646   2.474
 1292SOL    HW1 3894   1.784   4.617   2.482
 1292SOL    HW2 3895   1.681   4.711   2.399
 1293SOL     OW 3896   1.641   4.832   2.294
 1293SOL    HW1 3897   1.727   4.834   2.242
 1293SOL    HW2 3898   1.655   4.879   2.382
 1294SOL     OW 3899   0.113   4.461   3.459
 1294SOL    HW1 3900   0.201   4.448   3.504
 1294SOL    HW2 3901   0.100   4.558   3.437
 1295SOL     OW 3902   0.613   5.089   2.588
 1295SOL    HW1 3903   0.564   5.002   2.597
 1295SOL    HW2 3904   0.590   5.132   2.501
 1296SOL     OW 3905   1.293   4.952   3.285
 1296SOL    HW1 3906   1.330   4.879   3.227
 1296SOL    HW2 3907   1.345   4.957   3.370
 1297SOL     OW 3908   0.809   3.728   2.364
 1297SOL    HW1 3909   0.849   3.819   2.355
 1297SOL    HW2 3910   0.709   3.736   2.370
 1298SOL     OW 3911   0.197   4.700   3.126
 1298SOL    HW1 3912   0.286   4.655   3.112
 1298SOL    HW2 3913   0.124   4.635   3.107
 1299SOL     OW 3914   1.525   4.723   2.052
 1299SOL    HW1 3915   1.462   4.647   2.065
 1299SOL    HW2 3916   1.573   4.741   2.138
 1300SOL     OW 3917   0.317   3.975   3.663
 1300SOL    HW1 3918   0.388   4.046   3.669
 1300SOL    HW2 3919   0.229   4.014   3.691
 1301SOL     OW 3920   0.598   4.453   2.132
 1301SOL    HW1 3921   0.622   4.522   2.064
 1301SOL    HW2 3922   0.520   4.486   2.186
 1302SOL     OW 3923   1.281   4.069   2.806
 1302SOL    HW1 3924   1.195   4.019   2.793
 1302SOL    HW2 3925   1.343   4.015   2.862
 1303SOL     OW 3926   0.807   4.329   3.327
 1303SOL    HW1 3927   0.760   4.326   3.416
 1303SOL    HW2 3928   0.756   4.274   3.261
 1304SOL     OW 3929   1.394   4.193   3.536
 1304SOL    HW1 3930   1.374   4.236   3.624
 1304SOL    HW2 3931   1.472   4.131   3.545
 1305SOL     OW 3932   0.973   4.614   3.434
 1305SOL    HW1 3933   1.019   4.530   3.405
 1305SOL    HW2 3934   0.917   4.648   3.359
 1306SOL     OW 3935   0.991   4.134   3.104
 1306SOL    HW1 3936   0.914   4.168   3.158
 1306SOL    HW2 3937   0.957   4.083   3.025
 1307SOL     OW 3938   1.041   4.425   2.291
 1307SOL    HW1 3939   1.067   4.421   2.387
 1307SOL    HW2 3940   0.956   4.374   2.277
 1308SOL     OW 3941   0.076   4.535   2.651
 1308SOL    HW1 3942   0.175   4.523   2.660
 1308SOL    HW2 3943   0.052   4.630   2.672
 1309SOL     OW 3944   0.865   4.072   2.057
 1309SOL    HW1 3945   0.924   4.135   2.008
 1309SOL    HW2 3946   0.884   3.978   2.028
 1310SOL     OW 3947   1.719   4.309   3.693
 1310SOL    HW1 3948   1.693   4.398   3.657
 1310SOL    HW2 3949   1.717   4.241   3.620
 1311SOL     OW 3950   1.362   4.868   2.407
 1311SOL    HW1 3951   1.445   4.839   2.359
 1311SOL    HW2 3952   1.313   4.935   2.351
 1312SOL     OW 3953   0.550   3.920   2.747
 1312SOL    HW1 3954   0.545   3.915   2.847
 1312SOL    HW2 3955   0.552   4.016   2.718
 1313SOL     OW 3956   1.795   4.790   2.735
 1313SOL    HW1 3957   1.733   4.775   2.659
 1313SOL    HW2 3958   1.743   4.801   2.820
 1314SOL     OW 3959   0.321   4.667   2.104
 1314SOL    HW1 3960   0.403   4.706   2.062
 1314SOL    HW2 3961   0.294   4.585   2.055
 1315SOL     OW 3962   1.458   4.459   2.590
 1315SOL    HW1 3963   1.453   4.394   2.665
 1315SOL    HW2 3964   1.538   4.518   2.603
 1316SOL     OW 3965   0.202   4.009   3.360
 1316SOL    HW1 3966   0.122   4.069   3.347
 1316SOL    HW2 3967   0.192   3.960   3.446
 1317SOL     OW 3968   1.400   3.831   2.288
 1317SOL    HW1 3969   1.376   3.794   2.198
 1317SOL    HW2 3970   1.499   3.847   2.292
 1318SOL     OW 3971   0.382   4.424   2.342
 1318SOL    HW1 3972   0.427   4.334   2.339
 1318SOL    HW2 3973   0.288   4.413   2.375
 1319SOL     OW 3974   1.547   3.946   3.591
 1319SOL    HW1 3975   1.542   3.983   3.683
 1319SOL    HW2 3976   1.475   3.877   3.579
 1320SOL     OW 3977   0.614   3.846   1.979
 1320SOL    HW1 3978   0.712   3.824   1.986
 1320SOL    HW2 3979   0.583   3.829   1.886
 1321SOL     OW 3980   0.781   3.988   3.611
 1321SOL    HW1 3981   0.848   3.927   3.654
 1321SOL    HW2 3982   0.708   4.007   3.676
 1322SOL     OW 3983   1.351   4.314   3.295
 1322SOL    HW1 3984   1.379   4.271   3.380
 1322SOL    HW2 3985   1.376   4.410   3.296
 1323SOL     OW 3986   0.922   4.227   2.761
 1323SOL    HW1 3987   0.897   4.218   2.665
 1323SOL    HW2 3988   0.970   4.145   2.792
 1324SOL     OW 3989   0.539   3.788   2.374
 1324SOL    HW1 3990   0.458   3.789   2.432
 1324SOL    HW2 3991   0.542   3.871   2.319
 1325SOL     OW 3992   0.297   3.759   2.033
 1325SOL    HW1 3993   0.346   3.843   2.012
 1325SOL    HW2 3994   0.359   3.694   2.078
 1326SOL     OW 3995   0.935   3.960   2.342
 1326SOL    HW1 3996   0.887   4.001   2.264
 1326SOL    HW2 3997   1.034   3.958   2.323
 1327SOL     OW 3998   1.076   4.407   3.326
 1327SOL    HW1 3999   0.996   4.346   3.329
 1327SOL    HW2 4000   1.157   4.354   3.302
 1328SOL     OW 4001   0.459   4.876   2.603
 1328SOL    HW1 4002   0.388   4.849   2.668
 1328SOL    HW2 4003   0.433   4.848   2.510
 1329SOL     OW 4004   1.032   4.273   1.878
 1329SOL    HW1 4005   0.991   4.355   1.839
 1329SOL    HW2 4006   1.096   4.299   1.951
 1330SOL     OW 4007   0.078   4.280   3.248
 1330SOL    HW1 4008   0.170   4.279   3.207
 1330SOL    HW2 4009   0.072   4.354   3.315
 1331SOL     OW 4010   0.561   3.946   3.009
 1331SOL    HW1 4011   0.599   3.862   3.046
 1331SOL    HW2 4012   0.473   3.965   3.053
 1332SOL     OW 4013   0.866   4.178   2.504
 1332SOL    HW1 4014   0.834   4.250   2.442
 1332SOL    HW2 4015   0.890   4.097   2.451
 1333SOL     OW 4016   1.017   3.763   2.615
 1333SOL    HW1 4017   0.945   3.768   2.546
 1333SOL    HW2 4018   0.993   3.694   2.684
 1334SOL     OW 4019   1.429   4.897   2.729
 1334SOL    HW1 4020   1.374   4.813   2.722
 1334SOL    HW2 4021   1.455   4.926   2.637
 1335SOL     OW 4022   1.466   4.314   2.854
 1335SOL    HW1 4023   1.436   4.219   2.861
 1335SOL    HW2 4024   1.539   4.330   2.920
 1336SOL     OW 4025   1.857   4.557   2.239
 1336SOL    HW1 4026   1.899   4.493   2.303
 1336SOL    HW2 4027   1.819   4.506   2.161
 1337SOL     OW 4028   1.390   4.299   1.940
 1337SOL    HW1 4029   1.336   4.278   2.021
 1337SOL    HW2 4030   1.481   4.258   1.949
 1338SOL     OW 4031   0.527   3.980   2.190
 1338SOL    HW1 4032   0.554   3.921   2.115
 1338SOL    HW2 4033   0.527   4.075   2.159
 1339SOL     OW 4034   1.754   4.947   3.450
 1339SOL    HW1 4035   1.845   4.908   3.437
 1339SOL    HW2 4036   1.762   5.043   3.474
 1340SOL     OW 4037   1.638   4.823   2.941
 1340SOL    HW1 4038   1.643   4.904   3.000
 1340SOL    HW2 4039   1.552   4.825   2.890
 1341SOL     OW 4040   0.915   3.813   3.264
 1341SOL    HW1 4041   0.940   3.793   3.169
 1341SOL    HW2 4042   0.987   3.869   3.306
 1342SOL     OW 4043   0.980   4.840   3.581
 1342SOL    HW1 4044   0.881   4.846   3.591
 1342SOL    HW2 4045   1.003   4.760   3.525
 1343SOL     OW 4046   0.705   4.774   2.230
 1343SOL    HW1 4047   0.691   4.781   2.329
 1343SOL    HW2 4048   0.789   4.723   2.212
 1344SOL     OW 4049   0.410   4.537   3.113
 1344SOL    HW1 4050   0.496   4.549   3.163
 1344SOL    HW2 4051   0.368   4.450   3.140
 1345SOL     OW 4052   1.274   4.110   3.124
 1345SOL    HW1 4053   1.295   4.184   3.188
 1345SOL    HW2 4054   1.185   4.127   3.081
 1346SOL     OW 4055   0.367   4.824   2.363
 1346SOL    HW1 4056   0.360   4.907   2.307
 1346SOL    HW2 4057   0.371   4.744   2.303
 1347SOL     OW 4058   0.566   4.261   2.727
 1347SOL    HW1 4059   0.578   4.327   2.653
 1347SOL    HW2 4060   0.612   4.295   2.810
 1348SOL     OW 4061   1.582   4.363   2.334
 1348SOL    HW1 4062   1.551   4.424   2.407
 1348SOL    HW2 4063   1.632   4.415   2.265
 1349SOL     OW 4064   0.402   4.475   3.460
 1349SOL    HW1 4065   0.470   4.530   3.413
 1349SOL    HW2 4066   0.442   4.387   3.487
 1350SOL     OW 4067   1.587   4.503   3.532
 1350SOL    HW1 4068   1.495   4.541   3.527
 1350SOL    HW2 4069   1.647   4.550   3.467
 1351SOL     OW 4070   1.013   3.829   3.632
 1351SOL    HW1 4071   1.019   3.914   3.580
 1351SOL    HW2 4072   1.045   3.753   3.575
 1352SOL     OW 4073   0.504   3.774   3.602
 1352SOL    HW1 4074   0.462   3.717   3.532
 1352SOL    HW2 4075   0.438   3.843   3.634
 1353SOL     OW 4076   0.573   4.594   2.891
 1353SOL    HW1 4077   0.617   4.683   2.882
 1353SOL    HW2 4078   0.510   4.594   2.968
 1354SOL     OW 4079   1.360   4.586   2.907
 1354SOL    HW1 4080   1.285   4.586   2.841
 1354SOL    HW2 4081   1.397   4.494   2.916
 1355SOL     OW 4082   1.209   4.249   2.137
 1355SOL    HW1 4083   1.222   4.165   2.191
 1355SOL    HW2 4084   1.180   4.323   2.197
 1356SOL     OW 4085   0.307   3.937   3.093
 1356SOL    HW1 4086   0.284   3.974   3.183
 1356SOL    HW2 4087   0.277   3.842   3.087
 1357SOL     OW 4088   0.037   5.034   3.144
 1357SOL    HW1 4089   0.090   4.985   3.212
 1357SOL    HW2 4090   0.059   5.132   3.149
 1358SOL     OW 4091   0.732   4.358   2.926
 1358SOL    HW1 4092   0.791   4.332   2.850
 1358SOL    HW2 4093   0.704   4.454   2.915
 1359SOL     OW 4094   1.728   4.659   3.716
 1359SOL    HW1 4095   1.682   4.652   3.627
 1359SOL    HW2 4096   1.666   4.703   3.782
 1360SOL     OW 4097   0.307   3.787   2.480
 1360SOL    HW1 4098   0.296   3.881   2.513
 1360SOL    HW2 4099   0.302   3.724   2.557
 1361SOL     OW 4100   1.622   4.091   2.236
 1361SOL    HW1 4101   1.624   4.015   2.300
 1361SOL    HW2 4102   1.574   4.168   2.276
 1362SOL     OW 4103   1.023   4.490   2.828
 1362SOL    HW1 4104   1.038   4.511   2.924
 1362SOL    HW2 4105   0.993   4.395   2.819
 1363SOL     OW 4106   0.350   4.622   3.666
 1363SOL    HW1 4107   0.426   4.666   3.714
 1363SOL    HW2 4108   0.385   4.575   3.584
 1364SOL     OW 4109   1.540   3.998   1.987
 1364SOL    HW1 4110   1.479   3.923   2.010
 1364SOL    HW2 4111   1.562   4.050   2.070
 1365SOL     OW 4112   1.303   4.562   1.904
 1365SOL    HW1 4113   1.337   4.469   1.919
 1365SOL    HW2 4114   1.321   4.589   1.809
 1366SOL     OW 4115   0.319   4.534   2.811
 1366SOL    HW1 4116   0.412   4.570   2.816
 1366SOL    HW2 4117   0.313   4.449   2.863
 1367SOL     OW 4118   0.339   4.233   2.868
 1367SOL    HW1 4119   0.287   4.150   2.851
 1367SOL    HW2 4120   0.416   4.238   2.804
 1368SOL     OW 4121   1.138   4.104   3.540
 1368SOL    HW1 4122   1.093   4.167   3.604
 1368SOL    HW2 4123   1.231   4.135   3.523
 1369SOL     OW 4124   1.160   3.931   3.339
 1369SOL    HW1 4125   1.160   3.995   3.416
 1369SOL    HW2 4126   1.188   3.979   3.256
 1370SOL     OW 4127   1.002   4.520   3.100
 1370SOL    HW1 4128   1.043   4.488   3.186
 1370SOL    HW2 4129   0.906   4.493   3.097
 1371SOL     OW 4130   0.040   4.268   2.976
 1371SOL    HW1 4131   0.125   4.235   2.935
 1371SOL    HW2 4132   0.053   4.283   3.074
 1372SOL     OW 4133   0.189   4.244   3.584
 1372SOL    HW1 4134   0.248   4.204   3.514
 1372SOL    HW2 4135   0.131   4.315   3.543
 1373SOL     OW 4136   1.369   4.674   3.522
 1373SOL    HW1 4137   1.408   4.763   3.542
 1373SOL    HW2 4138   1.379   4.654   3.425
 1374SOL     OW 4139   0.815   4.296   2.187
 1374SOL    HW1 4140   0.822   4.207   2.141
 1374SOL    HW2 4141   0.721   4.330   2.179
 1375SOL     OW 4142   1.657   4.328   3.068
 1375SOL    HW1 4143   1.619   4.259   3.130
 1375SOL    HW2 4144   1.739   4.292   3.024
 1376SOL     OW 4145   0.671   4.188   3.131
 1376SOL    HW1 4146   0.637   4.099   3.101
 1376SOL    HW2 4147   0.697   4.242   3.051
 1377SOL     OW 4148   0.473   4.224   2.053
 1377SOL    HW1 4149   0.534   4.304   2.057
 1377SOL    HW2 4150   0.378   4.255   2.060
 1378SOL     OW 4151   0.159   4.861   3.328
 1378SOL    HW1 4152   0.181   4.800   3.404
 1378SOL    HW2 4153   0.169   4.812   3.242
 1379SOL     OW 4154   1.347   4.783   3.096
 1379SOL    HW1 4155   1.371   4.720   3.022
 1379SOL    HW2 4156   1.257   4.823   3.078
 1380SOL     OW 4157   1.302   4.579   2.171
 1380SOL    HW1 4158   1.216   4.548   2.213
 1380SOL    HW2 4159   1.298   4.565   2.072
 1381SOL     OW 4160   0.083   4.982   2.884
 1381SOL    HW1 4161   0.078   4.981   2.984
 1381SOL    HW2 4162   0.000   4.941   2.846
 1382SOL     OW 4163   1.726   3.859   2.385
 1382SOL    HW1 4164   1.799   3.842   2.318
 1382SOL    HW2 4165   1.695   3.772   2.423
 1383SOL     OW 4166   1.280   4.651   2.534
 1383SOL    HW1 4167   1.340   4.570   2.536
 1383SOL    HW2 4168   1.320   4.720   2.474
 1384SOL     OW 4169   1.841   3.899   2.825
 1384SOL    HW1 4170   1.880   3.814   2.789
 1384SOL    HW2 4171   1.743   3.901   2.806
 1385SOL     OW 4172   0.263   4.050   2.582
 1385SOL    HW1 4173   0.184   4.101   2.548
 1385SOL    HW2 4174   0.254   4.035   2.680
 1386SOL     OW 4175   0.822   4.726   3.234
 1386SOL    HW1 4176   0.862   4.725   3.142
 1386SOL    HW2 4177   0.832   4.818   3.274
 1387SOL     OW 4178   0.916   4.634   2.153
 1387SOL    HW1 4179   0.979   4.672   2.085
 1387SOL    HW2 4180   0.956   4.551   2.192
 1388SOL     OW 4181   0.372   5.012   3.352
 1388SOL    HW1 4182   0.359   5.105   3.318
 1388SOL    HW2 4183   0.288   4.960   3.339
 1389SOL     OW 4184   1.614   5.016   3.151
 1389SOL    HW1 4185   1.674   5.019   3.231
 1389SOL    HW2 4186   1.539   5.080   3.164
 1390SOL     OW 4187   1.039   4.822   2.558
 1390SOL    HW1 4188   0.969   4.775   2.612
 1390SOL    HW2 4189   1.098   4.754   2.515
 1391SOL     OW 4190   1.014   3.960   2.833
 1391SOL    HW1 4191   1.006   3.924   2.740
 1391SOL    HW2 4192   1.012   3.884   2.898
 1392SOL     OW 4193   1.709   4.109   3.243
 1392SOL    HW1 4194   1.782   4.178   3.247
 1392SOL    HW2 4195   1.737   4.034   3.184
 1393SOL     OW 4196   0.105   4.737   3.588
 1393SOL    HW1 4197   0.028   4.704   3.642
 1393SOL    HW2 4198   0.190   4.707   3.630
 1394SOL     OW 4199   0.672   3.927   3.351
 1394SOL    HW1 4200   0.762   3.911   3.311
 1394SOL    HW2 4201   0.680   3.932   3.450
 1395SOL     OW 4202   0.075   4.069   1.895
 1395SOL    HW1 4203  -0.017   4.041   1.866
 1395SOL    HW2 4204   0.106   4.146   1.839
 1396SOL     OW 4205   1.440   4.580   3.260
 1396SOL    HW1 4206   1.383   4.632   3.197
 1396SOL    HW2 4207   1.536   4.592   3.236
 1397SOL     OW 4208   0.072   3.890   2.180
 1397SOL    HW1 4209   0.055   3.973   2.126
 1397SOL    HW2 4210   0.162   3.853   2.158
 1398SOL     OW 4211   0.613   4.566   3.293
 1398SOL    HW1 4212   0.669   4.647   3.276
 1398SOL    HW2 4213   0.672   4.486   3.296
 1399SOL     OW 4214   0.716   4.289   3.570
 1399SOL    HW1 4215   0.735   4.354   3.644
 1399SOL    HW2 4216   0.776   4.209   3.579
 1400SOL     OW 4217   1.450   4.944   3.495
 1400SOL    HW1 4218   1.441   4.934   3.594
 1400SOL    HW2 4219   1.546   4.937   3.469
 1401SOL     OW 4220   1.674   4.607   3.116
 1401SOL    HW1 4221   1.647   4.518   3.079
 1401SOL    HW2 4222   1.675   4.675   3.043
 1402SOL     OW 4223   1.225   4.049   2.311
 1402SOL    HW1 4224   1.290   3.975   2.300
 1402SOL    HW2 4225   1.245   4.099   2.395
 1403SOL     OW 4226   0.594   4.469   2.514
 1403SOL    HW1 4227   0.644   4.554   2.495
 1403SOL    HW2 4228   0.506   4.471   2.466
 1404SOL     OW 4229   1.777   4.066   3.504
 1404SOL    HW1 4230   1.760   4.097   3.410
 1404SOL    HW2 4231   1.693   4.029   3.542
 1405SOL     OW 4232   1.730   4.658   3.379
 1405SOL    HW1 4233   1.768   4.749   3.394
 1405SOL    HW2 4234   1.722   4.641   3.280
 1406SOL     OW 4235   0.859   4.680   2.723
 1406SOL    HW1 4236   0.913   4.611   2.771
 1406SOL    HW2 4237   0.827   4.749   2.789
 1407SOL     OW 4238   1.083   4.708   1.949
 1407SOL    HW1 4239   1.060   4.761   1.867
 1407SOL    HW2 4240   1.164   4.652   1.930
 1408SOL     OW 4241   0.079   4.964   2.515
 1408SOL    HW1 4242   0.078   4.917   2.603
 1408SOL    HW2 4243   0.161   4.936   2.464
 1409SOL     OW 4244   1.824   3.916   3.089
 1409SOL    HW1 4245   1.820   3.826   3.133
 1409SOL    HW2 4246   1.827   3.905   2.990
 1410SOL     OW 4247   0.428   4.148   2.382
 1410SOL    HW1 4248   0.458   4.076   2.320
 1410SOL    HW2 4249   0.389   4.108   2.465
 1411SOL     OW 4250   0.317   4.271   3.142
 1411SOL    HW1 4251   0.355   4.212   3.214
 1411SOL    HW2 4252   0.357   4.245   3.054
 1412SOL     OW 4253   1.424   3.938   2.974
 1412SOL    HW1 4254   1.476   3.873   3.029
 1412SOL    HW2 4255   1.375   4.001   3.035
 1413SOL     OW 4256   1.001   3.758   3.016
 1413SOL    HW1 4257   0.938   3.686   2.985
 1413SOL    HW2 4258   1.094   3.722   3.016
 1414SOL     OW 4259   0.770   5.054   2.163
 1414SOL    HW1 4260   0.724   4.967   2.180
 1414SOL    HW2 4261   0.861   5.051   2.204
 1415SOL     OW 4262   1.352   3.776   2.030
 1415SOL    HW1 4263   1.387   3.735   1.946
 1415SOL    HW2 4264   1.262   3.738   2.050
 1416SOL     OW 4265   1.300   4.177   2.553
 1416SOL    HW1 4266   1.241   4.257   2.557
 1416SOL    HW2 4267   1.315   4.142   2.646
 1417SOL     OW 4268   1.593   3.945   2.744
 1417SOL    HW1 4269   1.509   3.944   2.798
 1417SOL    HW2 4270   1.595   4.028   2.688
 1418SOL     OW 4271   0.039   4.801   2.162
 1418SOL    HW1 4272   0.138   4.790   2.153
 1418SOL    HW2 4273  -0.001   4.715   2.194
 1419SOL     OW 4274   0.230   4.352   3.837
 1419SOL    HW1 4275   0.137   4.350   3.874
 1419SOL    HW2 4276   0.231   4.313   3.745
 1420SOL     OW 4277   0.225   3.999   4.720
 1420SOL    HW1 4278   0.260   3.982   4.812
 1420SOL    HW2 4279   0.137   3.954   4.708
 1421SOL     OW 4280   0.019   4.092   4.371
 1421SOL    HW1 4281  -0.063   4.135   4.410
 1421SOL    HW2 4282  -0.009   4.019   4.308
 1422SOL     OW 4283   1.135   4.427   4.441
 1422SOL    HW1 4284   1.192   4.505   4.416
 1422SOL    HW2 4285   1.075   4.453   4.517
 1423SOL     OW 4286   1.755   4.331   3.955
 1423SOL    HW1 4287   1.743   4.318   3.856
 1423SOL    HW2 4288   1.725   4.250   4.004
 1424SOL     OW 4289   0.768   4.868   4.747
 1424SOL    HW1 4290   0.690   4.885   4.807
 1424SOL    HW2 4291   0.802   4.955   4.711
 1425SOL     OW 4292   0.685   4.736   4.389
 1425SOL    HW1 4293   0.754   4.720   4.459
 1425SOL    HW2 4294   0.612   4.793   4.427
 1426SOL     OW 4295   1.603   4.171   4.461
 1426SOL    HW1 4296   1.529   4.217   4.411
 1426SOL    HW2 4297   1.654   4.239   4.514
 1427SOL     OW 4298   0.240   4.815   4.610
 1427SOL    HW1 4299   0.254   4.731   4.662
 1427SOL    HW2 4300   0.185   4.879   4.665
 1428SOL     OW 4301   0.606   4.688   3.847
 1428SOL    HW1 4302   0.613   4.772   3.793
 1428SOL    HW2 4303   0.652   4.701   3.935
 1429SOL     OW 4304   0.122   4.367   4.287
 1429SOL    HW1 4305   0.077   4.279   4.304
 1429SOL    HW2 4306   0.121   4.421   4.371
 1430SOL     OW 4307   1.689   4.646   4.336
 1430SOL    HW1 4308   1.784   4.617   4.344
 1430SOL    HW2 4309   1.681   4.711   4.261
 1431SOL     OW 4310   1.641   4.832   4.156
 1431SOL    HW1 4311   1.727   4.834   4.104
 1431SOL    HW2 4312   1.655   4.879   4.244
 1432SOL     OW 4313   0.613   5.089   4.450
 1432SOL    HW1 4314   0.564   5.002   4.459
 1432SOL    HW2 4315   0.590   5.132   4.363
 1433SOL     OW 4316   0.809   3.728   4.226
 1433SOL    HW1 4317   0.849   3.819   4.217
 1433SOL    HW2 4318   0.709   3.736   4.232
 1434SOL     OW 4319   0.197   4.700   4.988
 1434SOL    HW1 4320   0.286   4.655   4.974
 1434SOL    HW2 4321   0.124   4.635   4.969
 1435SOL     OW 4322   1.525   4.723   3.914
 1435SOL    HW1 4323   1.462   4.647   3.927
 1435SOL    HW2 4324   1.573   4.741   4.000
 1436SOL     OW 4325   0.598   4.453   3.994
 1436SOL    HW1 4326   0.622   4.522   3.926
 1436SOL    HW2 4327   0.520   4.486   4.048
 1437SOL     OW 4328   1.281   4.069   4.668
 1437SOL    HW1 4329   1.195   4.019   4.655
 1437SOL    HW2 4330   1.343   4.015   4.724
 1438SOL     OW 4331   1.041   4.425   4.153
 1438SOL    HW1 4332   1.067   4.421   4.249
 1438SOL    HW2 4333   0.956   4.374   4.139
 1439SOL     OW 4334   0.076   4.535   4.513
 1439SOL    HW1 4335   0.175   4.523   4.522
 1439SOL    HW2 4336   0.052   4.630   4.534
 1440SOL     OW 4337   0.865   4.072   3.919
 1440SOL    HW1 4338   0.924   4.135   3.870
 1440SOL    HW2 4339   0.884   3.978   3.890
 1441SOL     OW 4340   1.362   4.868   4.269
 1441SOL    HW1 4341   1.445   4.839   4.221
 1441SOL    HW2 4342   1.313   4.935   4.213
 1442SOL     OW 4343   0.550   3.920   4.609
 1442SOL    HW1 4344   0.545   3.915   4.709
 1442SOL    HW2 4345   0.552   4.016   4.580
 1443SOL     OW 4346   1.795   4.790   4.597
 1443SOL    HW1 4347   1.733   4.775   4.521
 1443SOL    HW2 4348   1.743   4.801   4.682
 1444SOL     OW 4349   0.321   4.667   3.966
 1444SOL    HW1 4350   0.403   4.706   3.924
 1444SOL    HW2 4351   0.294   4.585   3.917
 1445SOL     OW 4352   1.458   4.459   4.452
 1445SOL    HW1 4353   1.453   4.394   4.527
 1445SOL    HW2 4354   1.538   4.518   4.465
 1446SOL     OW 4355   1.400   3.831   4.150
 1446SOL    HW1 4356   1.376   3.794   4.060
 1446SOL    HW2 4357   1.499   3.847   4.154
 1447SOL     OW 4358   0.382   4.424   4.204
 1447SOL    HW1 4359   0.427   4.334   4.201
 1447SOL    HW2 4360   0.288   4.413   4.237
 1448SOL     OW 4361   0.614   3.846   3.841
 1448SOL    HW1 4362   0.712   3.824   3.848
 1448SOL    HW2 4363   0.583   3.829   3.748
 1449SOL     OW 4364   0.922   4.227   4.623
 1449SOL    HW1 4365   0.897   4.218   4.527
 1449SOL    HW2 4366   0.970   4.145   4.654
 1450SOL     OW 4367   0.539   3.788   4.236
 1450SOL    HW1 4368   0.458   3.789   4.294
 1450SOL    HW2 4369   0.542   3.871   4.181
 1451SOL     OW 4370   0.297   3.759   3.895
 1451SOL    HW1 4371   0.346   3.843   3.874
 1451SOL    HW2 4372   0.359   3.694   3.940
 1452SOL     OW 4373   0.935   3.960   4.204
 1452SOL    HW1 4374   0.887   4.001   4.126
 1452SOL    HW2 4375   1.034   3.958   4.185
 1453SOL     OW 4376   0.459   4.876   4.465
 1453SOL    HW1 4377   0.388   4.849   4.530
 1453SOL    HW2 4378   0.433   4.848   4.372
 1454SOL     OW 4379   1.032   4.273   3.740
 1454SOL    HW1 4380   0.991   4.355   3.701
 1454SOL    HW2 4381   1.096   4.299   3.813
 1455SOL     OW 4382   0.866   4.178   4.366
 1455SOL    HW1 4383   0.834   4.250   4.304
 1455SOL    HW2 4384   0.890   4.097   4.313
 1456SOL     OW 4385   1.017   3.763   4.477
 1456SOL    HW1 4386   0.945   3.768   4.408
 1456SOL    HW2 4387   0.993   3.694   4.546
 1457SOL     OW 4388   1.429   4.897   4.591
 1457SOL    HW1 4389   1.374   4.813   4.584
 1457SOL    HW2 4390   1.455   4.926   4.499
 1458SOL     OW 4391   1.466   4.314   4.716
 1458SOL    HW1 4392   1.436   4.219   4.723
 1458SOL    HW2 4393   1.539   4.330   4.782
 1459SOL     OW 4394   1.857   4.557   4.101
 1459SOL    HW1 4395   1.899   4.493   4.165
 1459SOL    HW2 4396   1.819   4.506   4.023
 1460SOL     OW 4397   1.390   4.299   3.802
 1460SOL    HW1 4398   1.336   4.278   3.883
 1460SOL    HW2 4399   1.481   4.258   3.811
 1461SOL     OW 4400   0.527   3.980   4.052
 1461SOL    HW1 4401   0.554   3.921   3.977
 1461SOL    HW2 4402   0.527   4.075   4.021
 1462SOL     OW 4403   1.638   4.823   4.803
 1462SOL    HW1 4404   1.643   4.904   4.862
 1462SOL    HW2 4405   1.552   4.825   4.752
 1463SOL     OW 4406   0.705   4.774   4.092
 1463SOL    HW1 4407   0.691   4.781   4.191
 1463SOL    HW2 4408   0.789   4.723   4.074
 1464SOL     OW 4409   0.410   4.537   4.975
 1464SOL    HW1 4410   0.496   4.549   5.025
 1464SOL    HW2 4411   0.368   4.450   5.002
 1465SOL     OW 4412   0.367   4.824   4.225
 1465SOL    HW1 4413   0.360   4.907   4.169
 1465SOL    HW2 4414   0.371   4.744   4.165
 1466SOL     OW 4415   0.566   4.261   4.589
 1466SOL    HW1 4416   0.578   4.327   4.515
 1466SOL    HW2 4417   0.612   4.295   4.672
 1467SOL     OW 4418   1.582   4.363   4.196
 1467SOL    HW1 4419   1.551   4.424   4.269
 1467SOL    HW2 4420   1.632   4.415   4.127
 1468SOL     OW 4421   0.573   4.594   4.753
 1468SOL    HW1 4422   0.617   4.683   4.744
 1468SOL    HW2 4423   0.510   4.594   4.830
 1469SOL     OW 4424   1.360   4.586   4.769
 1469SOL    HW1 4425   1.285   4.586   4.703
 1469SOL    HW2 4426   1.397   4.494   4.778
 1470SOL     OW 4427   1.209   4.249   3.999
 1470SOL    HW1 4428   1.222   4.165   4.053
 1470SOL    HW2 4429   1.180   4.323   4.059
 1471SOL     OW 4430   0.307   3.937   4.955
 1471SOL    HW1 4431   0.284   3.974   5.045
 1471SOL    HW2 4432   0.277   3.842   4.949
 1472SOL     OW 4433   0.037   5.034   5.006
 1472SOL    HW1 4434   0.090   4.985   5.074
 1472SOL    HW2 4435   0.059   5.132   5.011
 1473SOL     OW 4436   0.732   4.358   4.788
 1473SOL    HW1 4437   0.791   4.332   4.712
 1473SOL    HW2 4438   0.704   4.454   4.777
 1474SOL     OW 4439   0.307   3.787   4.342
 1474SOL    HW1 4440   0.296   3.881   4.375
 1474SOL    HW2 4441   0.302   3.724   4.419
 1475SOL     OW 4442   1.622   4.091   4.098
 1475SOL    HW1 4443   1.624   4.015   4.162
 1475SOL    HW2 4444   1.574   4.168   4.138
 1476SOL     OW 4445   1.023   4.490   4.690
 1476SOL    HW1 4446   1.038   4.511   4.786
 1476SOL    HW2 4447   0.993   4.395   4.681
 1477SOL     OW 4448   1.540   3.998   3.849
 1477SOL    HW1 4449   1.479   3.923   3.872
 1477SOL    HW2 4450   1.562   4.050   3.932
 1478SOL     OW 4451   1.303   4.562   3.766
 1478SOL    HW1 4452   1.337   4.469   3.781
 1478SOL    HW2 4453   1.321   4.589   3.671
 1479SOL     OW 4454   0.319   4.534   4.673
 1479SOL    HW1 4455   0.412   4.570   4.678
 1479SOL    HW2 4456   0.313   4.449   4.725
 1480SOL     OW 4457   0.339   4.233   4.730
 1480SOL    HW1 4458   0.287   4.150   4.713
 1480SOL    HW2 4459   0.416   4.238   4.666
 1481SOL     OW 4460   1.160   3.931   5.201
 1481SOL    HW1 4461   1.160   3.995   5.278
 1481SOL    HW2 4462   1.188   3.979   5.118
 1482SOL     OW 4463   1.002   4.520   4.962
 1482SOL    HW1 4464   1.043   4.488   5.048
 1482SOL    HW2 4465   0.906   4.493   4.959
 1483SOL     OW 4466   0.040   4.268   4.838
 1483SOL    HW1 4467   0.125   4.235   4.797
 1483SOL    HW2 4468   0.053   4.283   4.936
 1484SOL     OW 4469   0.815   4.296   4.049
 1484SOL    HW1 4470   0.822   4.207   4.003
 1484SOL    HW2 4471   0.721   4.330   4.041
 1485SOL     OW 4472   1.657   4.328   4.930
 1485SOL    HW1 4473   1.619   4.259   4.992
 1485SOL    HW2 4474   1.739   4.292   4.886
 1486SOL     OW 4475   0.671   4.188   4.993
 1486SOL    HW1 4476   0.637   4.099   4.963
 1486SOL    HW2 4477   0.697   4.242   4.913
 1487SOL     OW 4478   0.473   4.224   3.915
 1487SOL    HW1 4479   0.534   4.304   3.919
 1487SOL    HW2 4480   0.378   4.255   3.922
 1488SOL     OW 4481   1.347   4.783   4.958
 1488SOL    HW1 4482   1.371   4.720   4.884
 1488SOL    HW2 4483   1.257   4.823   4.940
 1489SOL     OW 4484   1.302   4.579   4.033
 1489SOL    HW1 4485   1.216   4.548   4.075
 1489SOL    HW2 4486   1.298   4.565   3.934
 1490SOL     OW 4487   0.083   4.982   4.746
 1490SOL    HW1 4488   0.078   4.981   4.846
 1490SOL    HW2 4489   0.000   4.941   4.708
 1491SOL     OW 4490   1.726   3.859   4.247
 1491SOL    HW1 4491   1.799   3.842   4.180
 1491SOL    HW2 4492   1.695   3.772   4.285
 1492SOL     OW 4493   1.280   4.651   4.396
 1492SOL    HW1 4494   1.340   4.570   4.398
 1492SOL    HW2 4495   1.320   4.720   4.336
 1493SOL     OW 4496   1.841   3.899   4.687
 1493SOL    HW1 4497   1.880   3.814   4.651
 1493SOL    HW2 4498   1.743   3.901   4.668
 1494SOL     OW 4499   0.263   4.050   4.444
 1494SOL    HW1 4500   0.184   4.101   4.410
 1494SOL    HW2 4501   0.254   4.035   4.542
 1495SOL     OW 4502   0.822   4.726   5.096
 1495SOL    HW1 4503   0.862   4.725   5.004
 1495SOL    HW2 4504   0.832   4.818   5.136
 1496SOL     OW 4505   0.916   4.634   4.015
 1496SOL    HW1 4506   0.979   4.672   3.947
 1496SOL    HW2 4507   0.956   4.551   4.054
 1497SOL     OW 4508   1.614   5.016   5.013
 1497SOL    HW1 4509   1.674   5.019   5.093
 1497SOL    HW2 4510   1.539   5.080   5.026
 1498SOL     OW 4511   1.039   4.822   4.420
 1498SOL    HW1 4512   0.969   4.775   4.474
 1498SOL    HW2 4513   1.098   4.754   4.377
 1499SOL     OW 4514   1.014   3.960   4.695
 1499SOL    HW1 4515   1.006   3.924   4.602
 1499SOL    HW2 4516   1.012   3.884   4.760
 1500SOL     OW 4517   1.709   4.109   5.105
 1500SOL    HW1 4518   1.782   4.178   5.109
 1500SOL    HW2 4519   1.737   4.034   5.046
 1501SOL     OW 4520   0.075   4.069   3.757
 1501SOL    HW1 4521  -0.017   4.041   3.728
 1501SOL    HW2 4522   0.106   4.146   3.701
 1502SOL     OW 4523   0.072   3.890   4.042
 1502SOL    HW1 4524   0.055   3.973   3.988
 1502SOL    HW2 4525   0.162   3.853   4.020
 1503SOL     OW 4526   1.674   4.607   4.978
 1503SOL    HW1 4527   1.647   4.518   4.941
 1503SOL    HW2 4528   1.675   4.675   4.905
 1504SOL     OW 4529   1.225   4.049   4.173
 1504SOL    HW1 4530   1.290   3.975   4.162
 1504SOL    HW2 4531   1.245   4.099   4.257
 1505SOL     OW 4532   0.594   4.469   4.376
 1505SOL    HW1 4533   0.644   4.554   4.357
 1505SOL    HW2 4534   0.506   4.471   4.328
 1506SOL     OW 4535   1.730   4.658   5.241
 1506SOL    HW1 4536   1.768   4.749   5.256
 1506SOL    HW2 4537   1.722   4.641   5.142
 1507SOL     OW 4538   0.859   4.680   4.585
 1507SOL    HW1 4539   0.913   4.611   4.633
 1507SOL    HW2 4540   0.827   4.749   4.651
 1508SOL     OW 4541   1.083   4.708   3.811
 1508SOL    HW1 4542   1.060   4.761   3.729
 1508SOL    HW2 4543   1.164   4.652   3.792
 1509SOL     OW 4544   0.079   4.964   4.377
 1509SOL    HW1 4545   0.078   4.917   4.465
 1509SOL    HW2 4546   0.161   4.936   4.326
 1510SOL     OW 4547   1.824   3.916   4.951
 1510SOL    HW1 4548   1.820   3.826   4.995
 1510SOL    HW2 4549   1.827   3.905   4.852
 1511SOL     OW 4550   0.428   4.148   4.244
 1511SOL    HW1 4551   0.458   4.076   4.182
 1511SOL    HW2 4552   0.389   4.108   4.327
 1512SOL     OW 4553   1.424   3.938   4.836
 1512SOL    HW1 4554   1.476   3.873   4.891
 1512SOL    HW2 4555   1.375   4.001   4.897
 1513SOL     OW 4556   1.001   3.758   4.878
 1513SOL    HW1 4557   0.938   3.686   4.847
 1513SOL    HW2 4558   1.094   3.722   4.878
 1514SOL     OW 4559   0.770   5.054   4.025
 1514SOL    HW1 4560   0.724   4.967   4.042
 1514SOL    HW2 4561   0.861   5.051   4.066
 1515SOL     OW 4562   1.352   3.776   3.892
 1515SOL    HW1 4563   1.387   3.735   3.808
 1515SOL    HW2 4564   1.262   3.738   3.912
 1516SOL     OW 4565   1.300   4.177   4.415
 1516SOL    HW1 4566   1.241   4.257   4.419
 1516SOL    HW2 4567   1.315   4.142   4.508
 1517SOL     OW 4568   1.593   3.945   4.606
 1517SOL    HW1 4569   1.509   3.944   4.660
 1517SOL    HW2 4570   1.595   4.028   4.550
 1518SOL     OW 4571   0.039   4.801   4.024
 1518SOL    HW1 4572   0.138   4.790   4.015
 1518SOL    HW2 4573  -0.001   4.715   4.056
 1519SOL     OW 4574   2.092   0.628   0.113
 1519SOL    HW1 4575   1.999   0.626   0.150
 1519SOL    HW2 4576   2.093   0.589   0.021
 1520SOL     OW 4577   2.087   0.275   0.996
 1520SOL    HW1 4578   2.122   0.258   1.088
 1520SOL    HW2 4579   1.999   0.230   0.984
 1521SOL     OW 4580   1.881   0.368   0.647
 1521SOL    HW1 4581   1.799   0.411   0.686
 1521SOL    HW2 4582   1.853   0.295   0.584
 1522SOL     OW 4583   2.431   1.275   1.165
 1522SOL    HW1 4584   2.338   1.268   1.128
 1522SOL    HW2 4585   2.442   1.364   1.209
 1523SOL     OW 4586   3.417   1.511   0.703
 1523SOL    HW1 4587   3.360   1.495   0.784
 1523SOL    HW2 4588   3.358   1.521   0.623
 1524SOL     OW 4589   2.997   0.703   0.717
 1524SOL    HW1 4590   3.054   0.781   0.692
 1524SOL    HW2 4591   2.937   0.729   0.793
 1525SOL     OW 4592   3.617   0.607   0.231
 1525SOL    HW1 4593   3.605   0.594   0.132
 1525SOL    HW2 4594   3.587   0.526   0.280
 1526SOL     OW 4595   2.630   1.144   1.023
 1526SOL    HW1 4596   2.552   1.161   1.083
 1526SOL    HW2 4597   2.664   1.231   0.987
 1527SOL     OW 4598   2.712   0.798   1.823
 1527SOL    HW1 4599   2.708   0.874   1.888
 1527SOL    HW2 4600   2.734   0.834   1.732
 1528SOL     OW 4601   2.547   1.012   0.665
 1528SOL    HW1 4602   2.616   0.996   0.735
 1528SOL    HW2 4603   2.474   1.069   0.703
 1529SOL     OW 4604   2.548   1.161   1.803
 1529SOL    HW1 4605   2.608   1.240   1.817
 1529SOL    HW2 4606   2.462   1.192   1.762
 1530SOL     OW 4607   2.197   1.435   1.061
 1530SOL    HW1 4608   2.119   1.404   1.008
 1530SOL    HW2 4609   2.255   1.493   1.004
 1531SOL     OW 4610   3.322   1.505   1.339
 1531SOL    HW1 4611   3.346   1.599   1.365
 1531SOL    HW2 4612   3.306   1.451   1.421
 1532SOL     OW 4613   2.300   0.392   1.499
 1532SOL    HW1 4614   2.382   0.336   1.508
 1532SOL    HW2 4615   2.219   0.334   1.503
 1533SOL     OW 4616   3.465   0.447   0.737
 1533SOL    HW1 4617   3.391   0.493   0.687
 1533SOL    HW2 4618   3.516   0.515   0.790
 1534SOL     OW 4619   2.093   1.713   0.483
 1534SOL    HW1 4620   2.127   1.790   0.537
 1534SOL    HW2 4621   2.137   1.713   0.393
 1535SOL     OW 4622   2.989   1.341   1.690
 1535SOL    HW1 4623   3.036   1.341   1.778
 1535SOL    HW2 4624   2.941   1.254   1.679
 1536SOL     OW 4625   2.092   1.434   0.538
 1536SOL    HW1 4626   2.066   1.530   0.538
 1536SOL    HW2 4627   2.021   1.380   0.583
 1537SOL     OW 4628   2.102   1.091   0.886
 1537SOL    HW1 4629   2.116   1.007   0.938
 1537SOL    HW2 4630   2.047   1.155   0.941
 1538SOL     OW 4631   2.482   1.786   1.439
 1538SOL    HW1 4632   2.390   1.769   1.474
 1538SOL    HW2 4633   2.510   1.878   1.465
 1539SOL     OW 4634   2.468   0.964   0.123
 1539SOL    HW1 4635   2.475   1.048   0.069
 1539SOL    HW2 4636   2.514   0.977   0.211
 1540SOL     OW 4637   3.456   0.114   1.480
 1540SOL    HW1 4638   3.438   0.181   1.408
 1540SOL    HW2 4639   3.453   0.160   1.569
 1541SOL     OW 4640   1.984   0.643   0.563
 1541SOL    HW1 4641   1.939   0.555   0.580
 1541SOL    HW2 4642   1.983   0.697   0.647
 1542SOL     OW 4643   3.704   1.767   0.359
 1542SOL    HW1 4644   3.758   1.738   0.439
 1542SOL    HW2 4645   3.734   1.857   0.330
 1543SOL     OW 4646   1.889   1.596   0.117
 1543SOL    HW1 4647   1.870   1.500   0.138
 1543SOL    HW2 4648   1.856   1.654   0.192
 1544SOL     OW 4649   3.551   0.922   0.612
 1544SOL    HW1 4650   3.646   0.893   0.620
 1544SOL    HW2 4651   3.543   0.987   0.537
 1545SOL     OW 4652   3.503   1.108   0.432
 1545SOL    HW1 4653   3.589   1.110   0.380
 1545SOL    HW2 4654   3.517   1.155   0.520
 1546SOL     OW 4655   1.975   0.737   1.597
 1546SOL    HW1 4656   2.063   0.724   1.642
 1546SOL    HW2 4657   1.962   0.834   1.575
 1547SOL     OW 4658   2.475   1.365   0.726
 1547SOL    HW1 4659   2.426   1.278   0.735
 1547SOL    HW2 4660   2.452   1.408   0.639
 1548SOL     OW 4661   3.155   1.228   1.423
 1548SOL    HW1 4662   3.192   1.155   1.365
 1548SOL    HW2 4663   3.207   1.233   1.508
 1549SOL     OW 4664   2.671   0.004   0.502
 1549SOL    HW1 4665   2.711   0.095   0.493
 1549SOL    HW2 4666   2.571   0.012   0.508
 1550SOL     OW 4667   2.059   0.976   1.264
 1550SOL    HW1 4668   2.148   0.931   1.250
 1550SOL    HW2 4669   1.986   0.911   1.245
 1551SOL     OW 4670   3.387   0.999   0.190
 1551SOL    HW1 4671   3.324   0.923   0.203
 1551SOL    HW2 4672   3.435   1.017   0.276
 1552SOL     OW 4673   3.049   1.792   1.616
 1552SOL    HW1 4674   3.073   1.852   1.540
 1552SOL    HW2 4675   3.056   1.697   1.586
 1553SOL     OW 4676   2.179   0.251   1.801
 1553SOL    HW1 4677   2.250   0.322   1.807
 1553SOL    HW2 4678   2.091   0.290   1.829
 1554SOL     OW 4679   3.328   1.417   0.953
 1554SOL    HW1 4680   3.269   1.423   1.033
 1554SOL    HW2 4681   3.313   1.329   0.907
 1555SOL     OW 4682   3.529   1.714   0.572
 1555SOL    HW1 4683   3.488   1.691   0.484
 1555SOL    HW2 4684   3.511   1.640   0.637
 1556SOL     OW 4685   2.460   0.729   0.270
 1556SOL    HW1 4686   2.484   0.798   0.202
 1556SOL    HW2 4687   2.382   0.762   0.324
 1557SOL     OW 4688   3.143   0.345   0.944
 1557SOL    HW1 4689   3.057   0.295   0.931
 1557SOL    HW2 4690   3.205   0.291   1.000
 1558SOL     OW 4691   3.438   1.662   0.307
 1558SOL    HW1 4692   3.527   1.708   0.310
 1558SOL    HW2 4693   3.417   1.638   0.212
 1559SOL     OW 4694   2.669   0.605   1.465
 1559SOL    HW1 4695   2.622   0.602   1.554
 1559SOL    HW2 4696   2.618   0.550   1.399
 1560SOL     OW 4697   3.256   0.469   1.674
 1560SOL    HW1 4698   3.236   0.512   1.762
 1560SOL    HW2 4699   3.334   0.407   1.683
 1561SOL     OW 4700   2.835   0.890   1.572
 1561SOL    HW1 4701   2.881   0.806   1.543
 1561SOL    HW2 4702   2.779   0.924   1.497
 1562SOL     OW 4703   2.853   0.410   1.242
 1562SOL    HW1 4704   2.776   0.444   1.296
 1562SOL    HW2 4705   2.819   0.359   1.163
 1563SOL     OW 4706   2.903   0.701   0.429
 1563SOL    HW1 4707   2.929   0.697   0.525
 1563SOL    HW2 4708   2.818   0.650   0.415
 1564SOL     OW 4709   1.938   0.811   0.789
 1564SOL    HW1 4710   2.037   0.799   0.798
 1564SOL    HW2 4711   1.914   0.906   0.810
 1565SOL     OW 4712   1.992   1.821   1.571
 1565SOL    HW1 4713   1.982   1.806   1.670
 1565SOL    HW2 4714   1.906   1.857   1.535
 1566SOL     OW 4715   2.727   0.348   0.195
 1566SOL    HW1 4716   2.786   0.411   0.146
 1566SOL    HW2 4717   2.746   0.254   0.166
 1567SOL     OW 4718   3.581   0.585   1.831
 1567SOL    HW1 4719   3.555   0.674   1.795
 1567SOL    HW2 4720   3.579   0.517   1.758
 1568SOL     OW 4721   3.224   1.144   0.545
 1568SOL    HW1 4722   3.307   1.115   0.497
 1568SOL    HW2 4723   3.175   1.211   0.489
 1569SOL     OW 4724   2.412   0.196   0.885
 1569SOL    HW1 4725   2.407   0.191   0.985
 1569SOL    HW2 4726   2.414   0.292   0.856
 1570SOL     OW 4727   2.870   1.456   0.477
 1570SOL    HW1 4728   2.824   1.528   0.425
 1570SOL    HW2 4729   2.866   1.476   0.575
 1571SOL     OW 4730   2.213   1.801   0.853
 1571SOL    HW1 4731   2.263   1.715   0.859
 1571SOL    HW2 4732   2.278   1.878   0.850
 1572SOL     OW 4733   3.657   1.066   0.873
 1572SOL    HW1 4734   3.595   1.051   0.797
 1572SOL    HW2 4735   3.605   1.077   0.958
 1573SOL     OW 4736   3.089   1.550   1.506
 1573SOL    HW1 4737   3.095   1.473   1.570
 1573SOL    HW2 4738   3.037   1.524   1.426
 1574SOL     OW 4739   2.183   0.943   0.242
 1574SOL    HW1 4740   2.265   0.982   0.200
 1574SOL    HW2 4741   2.156   0.861   0.193
 1575SOL     OW 4742   3.320   0.735   0.728
 1575SOL    HW1 4743   3.315   0.670   0.803
 1575SOL    HW2 4744   3.400   0.794   0.741
 1576SOL     OW 4745   2.323   1.266   1.727
 1576SOL    HW1 4746   2.273   1.267   1.641
 1576SOL    HW2 4747   2.260   1.248   1.803
 1577SOL     OW 4748   2.973   1.776   0.237
 1577SOL    HW1 4749   2.913   1.714   0.287
 1577SOL    HW2 4750   3.004   1.732   0.152
 1578SOL     OW 4751   2.064   0.285   1.498
 1578SOL    HW1 4752   1.984   0.345   1.485
 1578SOL    HW2 4753   2.054   0.236   1.584
 1579SOL     OW 4754   3.494   1.377   0.081
 1579SOL    HW1 4755   3.462   1.471   0.071
 1579SOL    HW2 4756   3.418   1.314   0.069
 1580SOL     OW 4757   2.326   1.743   0.323
 1580SOL    HW1 4758   2.359   1.782   0.409
 1580SOL    HW2 4759   2.402   1.736   0.258
 1581SOL     OW 4760   3.262   0.107   0.426
 1581SOL    HW1 4761   3.238   0.070   0.336
 1581SOL    HW2 4762   3.361   0.123   0.430
 1582SOL     OW 4763   2.111   1.785   1.241
 1582SOL    HW1 4764   2.168   1.720   1.291
 1582SOL    HW2 4765   2.095   1.752   1.148
 1583SOL     OW 4766   2.802   1.698   0.904
 1583SOL    HW1 4767   2.882   1.641   0.925
 1583SOL    HW2 4768   2.753   1.658   0.827
 1584SOL     OW 4769   2.244   0.700   0.480
 1584SOL    HW1 4770   2.289   0.610   0.477
 1584SOL    HW2 4771   2.150   0.689   0.513
 1585SOL     OW 4772   3.409   0.222   1.729
 1585SOL    HW1 4773   3.404   0.259   1.821
 1585SOL    HW2 4774   3.337   0.153   1.717
 1586SOL     OW 4775   2.476   0.122   0.117
 1586SOL    HW1 4776   2.574   0.100   0.124
 1586SOL    HW2 4777   2.445   0.105   0.024
 1587SOL     OW 4778   2.643   0.264   1.749
 1587SOL    HW1 4779   2.710   0.203   1.792
 1587SOL    HW2 4780   2.570   0.283   1.814
 1588SOL     OW 4781   2.750   1.514   1.195
 1588SOL    HW1 4782   2.727   1.489   1.101
 1588SOL    HW2 4783   2.811   1.445   1.234
 1589SOL     OW 4784   3.213   0.590   1.433
 1589SOL    HW1 4785   3.241   0.547   1.518
 1589SOL    HW2 4786   3.238   0.686   1.434
 1590SOL     OW 4787   2.665   1.402   0.924
 1590SOL    HW1 4788   2.755   1.416   0.882
 1590SOL    HW2 4789   2.594   1.404   0.853
 1591SOL     OW 4790   2.784   0.503   0.899
 1591SOL    HW1 4791   2.759   0.494   0.803
 1591SOL    HW2 4792   2.832   0.421   0.930
 1592SOL     OW 4793   2.401   0.064   0.512
 1592SOL    HW1 4794   2.320   0.065   0.570
 1592SOL    HW2 4795   2.404   0.147   0.457
 1593SOL     OW 4796   3.296   1.188   0.041
 1593SOL    HW1 4797   3.328   1.112   0.098
 1593SOL    HW2 4798   3.204   1.215   0.071
 1594SOL     OW 4799   2.159   0.035   0.171
 1594SOL    HW1 4800   2.208   0.119   0.150
 1594SOL    HW2 4801   2.221  -0.030   0.216
 1595SOL     OW 4802   2.797   0.236   0.480
 1595SOL    HW1 4803   2.749   0.277   0.402
 1595SOL    HW2 4804   2.896   0.234   0.461
 1596SOL     OW 4805   2.938   0.683   1.464
 1596SOL    HW1 4806   2.858   0.622   1.467
 1596SOL    HW2 4807   3.019   0.630   1.440
 1597SOL     OW 4808   3.089   1.570   0.793
 1597SOL    HW1 4809   3.110   1.644   0.728
 1597SOL    HW2 4810   3.157   1.570   0.866
 1598SOL     OW 4811   2.321   1.152   0.741
 1598SOL    HW1 4812   2.250   1.125   0.806
 1598SOL    HW2 4813   2.295   1.124   0.648
 1599SOL     OW 4814   3.133   1.797   0.591
 1599SOL    HW1 4815   3.177   1.861   0.527
 1599SOL    HW2 4816   3.083   1.849   0.661
 1600SOL     OW 4817   2.894   0.549   0.016
 1600SOL    HW1 4818   2.853   0.631  -0.023
 1600SOL    HW2 4819   2.958   0.575   0.089
 1601SOL     OW 4820   1.940   0.556   1.386
 1601SOL    HW1 4821   2.032   0.555   1.345
 1601SOL    HW2 4822   1.934   0.630   1.453
 1602SOL     OW 4823   2.423   0.222   1.147
 1602SOL    HW1 4824   2.461   0.138   1.184
 1602SOL    HW2 4825   2.335   0.241   1.191
 1603SOL     OW 4826   2.728   0.454   0.642
 1603SOL    HW1 4827   2.696   0.526   0.580
 1603SOL    HW2 4828   2.752   0.373   0.589
 1604SOL     OW 4829   2.879   0.039   0.753
 1604SOL    HW1 4830   2.807   0.044   0.684
 1604SOL    HW2 4831   2.855  -0.030   0.822
 1605SOL     OW 4832   3.291   1.173   0.867
 1605SOL    HW1 4833   3.236   1.089   0.860
 1605SOL    HW2 4834   3.317   1.202   0.775
 1606SOL     OW 4835   3.328   0.590   0.992
 1606SOL    HW1 4836   3.298   0.495   0.999
 1606SOL    HW2 4837   3.401   0.606   1.058
 1607SOL     OW 4838   3.719   0.833   0.377
 1607SOL    HW1 4839   3.761   0.769   0.441
 1607SOL    HW2 4840   3.681   0.782   0.299
 1608SOL     OW 4841   2.350   1.385   0.174
 1608SOL    HW1 4842   2.263   1.370   0.221
 1608SOL    HW2 4843   2.333   1.411   0.079
 1609SOL     OW 4844   3.526   1.280   0.657
 1609SOL    HW1 4845   3.625   1.288   0.671
 1609SOL    HW2 4846   3.481   1.364   0.688
 1610SOL     OW 4847   3.252   0.575   0.078
 1610SOL    HW1 4848   3.198   0.554   0.159
 1610SOL    HW2 4849   3.343   0.534   0.087
 1611SOL     OW 4850   2.389   0.256   0.328
 1611SOL    HW1 4851   2.416   0.197   0.253
 1611SOL    HW2 4852   2.389   0.351   0.297
 1612SOL     OW 4853   3.616   1.223   1.588
 1612SOL    HW1 4854   3.707   1.184   1.575
 1612SOL    HW2 4855   3.624   1.319   1.612
 1613SOL     OW 4856   2.926   1.347   1.340
 1613SOL    HW1 4857   2.846   1.324   1.395
 1613SOL    HW2 4858   3.009   1.321   1.389
 1614SOL     OW 4859   3.454   1.629   1.625
 1614SOL    HW1 4860   3.481   1.663   1.535
 1614SOL    HW2 4861   3.533   1.591   1.671
 1615SOL     OW 4862   2.973   1.195   1.100
 1615SOL    HW1 4863   2.933   1.239   1.181
 1615SOL    HW2 4864   2.932   1.232   1.017
 1616SOL     OW 4865   3.500   1.099   1.079
 1616SOL    HW1 4866   3.505   1.180   1.138
 1616SOL    HW2 4867   3.414   1.101   1.028
 1617SOL     OW 4868   2.777   0.089   1.402
 1617SOL    HW1 4869   2.802   0.069   1.307
 1617SOL    HW2 4870   2.849   0.145   1.444
 1618SOL     OW 4871   2.842   1.116   1.719
 1618SOL    HW1 4872   2.743   1.122   1.729
 1618SOL    HW2 4873   2.865   1.036   1.663
 1619SOL     OW 4874   2.567   1.050   0.368
 1619SOL    HW1 4875   2.553   1.057   0.467
 1619SOL    HW2 4876   2.651   0.999   0.350
 1620SOL     OW 4877   2.272   0.813   1.251
 1620SOL    HW1 4878   2.358   0.825   1.301
 1620SOL    HW2 4879   2.230   0.726   1.278
 1621SOL     OW 4880   3.136   0.386   1.262
 1621SOL    HW1 4881   3.157   0.460   1.326
 1621SOL    HW2 4882   3.047   0.403   1.219
 1622SOL     OW 4883   1.926   1.564   1.331
 1622SOL    HW1 4884   1.880   1.646   1.297
 1622SOL    HW2 4885   2.024   1.583   1.340
 1623SOL     OW 4886   2.229   1.100   0.501
 1623SOL    HW1 4887   2.222   1.183   0.445
 1623SOL    HW2 4888   2.233   1.020   0.441
 1624SOL     OW 4889   2.428   0.537   0.865
 1624SOL    HW1 4890   2.440   0.603   0.791
 1624SOL    HW2 4891   2.474   0.571   0.948
 1625SOL     OW 4892   3.114   1.348   0.388
 1625SOL    HW1 4893   3.164   1.425   0.428
 1625SOL    HW2 4894   3.019   1.350   0.420
 1626SOL     OW 4895   3.134   1.445   1.142
 1626SOL    HW1 4896   3.181   1.458   1.229
 1626SOL    HW2 4897   3.068   1.371   1.151
 1627SOL     OW 4898   3.444   0.639   0.472
 1627SOL    HW1 4899   3.413   0.700   0.545
 1627SOL    HW2 4900   3.494   0.691   0.403
 1628SOL     OW 4901   2.216   1.510   1.329
 1628SOL    HW1 4902   2.195   1.466   1.242
 1628SOL    HW2 4903   2.313   1.536   1.332
 1629SOL     OW 4904   2.264   0.751   1.598
 1629SOL    HW1 4905   2.332   0.806   1.551
 1629SOL    HW2 4906   2.304   0.663   1.625
 1630SOL     OW 4907   3.449   0.779   1.670
 1630SOL    HW1 4908   3.357   0.817   1.665
 1630SOL    HW2 4909   3.509   0.826   1.605
 1631SOL     OW 4910   2.875   0.105   1.770
 1631SOL    HW1 4911   2.881   0.190   1.718
 1631SOL    HW2 4912   2.907   0.029   1.713
 1632SOL     OW 4913   2.366   0.050   1.740
 1632SOL    HW1 4914   2.324  -0.007   1.670
 1632SOL    HW2 4915   2.300   0.119   1.772
 1633SOL     OW 4916   2.435   0.870   1.029
 1633SOL    HW1 4917   2.479   0.959   1.020
 1633SOL    HW2 4918   2.372   0.870   1.106
 1634SOL     OW 4919   3.222   0.862   1.045
 1634SOL    HW1 4920   3.147   0.862   0.979
 1634SOL    HW2 4921   3.259   0.770   1.054
 1635SOL     OW 4922   3.071   0.525   0.275
 1635SOL    HW1 4923   3.084   0.441   0.329
 1635SOL    HW2 4924   3.042   0.599   0.335
 1636SOL     OW 4925   2.169   0.213   1.231
 1636SOL    HW1 4926   2.146   0.250   1.321
 1636SOL    HW2 4927   2.139   0.118   1.225
 1637SOL     OW 4928   1.899   1.310   1.282
 1637SOL    HW1 4929   1.952   1.261   1.350
 1637SOL    HW2 4930   1.921   1.408   1.287
 1638SOL     OW 4931   2.594   0.634   1.064
 1638SOL    HW1 4932   2.653   0.608   0.988
 1638SOL    HW2 4933   2.566   0.730   1.053
 1639SOL     OW 4934   3.590   0.935   1.854
 1639SOL    HW1 4935   3.544   0.928   1.765
 1639SOL    HW2 4936   3.528   0.979   1.920
 1640SOL     OW 4937   2.169   0.063   0.618
 1640SOL    HW1 4938   2.158   0.157   0.651
 1640SOL    HW2 4939   2.164   0.000   0.695
 1641SOL     OW 4940   3.484   0.367   0.374
 1641SOL    HW1 4941   3.486   0.291   0.438
 1641SOL    HW2 4942   3.436   0.444   0.414
 1642SOL     OW 4943   2.885   0.766   0.966
 1642SOL    HW1 4944   2.900   0.787   1.062
 1642SOL    HW2 4945   2.855   0.671   0.957
 1643SOL     OW 4946   2.842   1.573   1.700
 1643SOL    HW1 4947   2.822   1.617   1.612
 1643SOL    HW2 4948   2.881   1.482   1.684
 1644SOL     OW 4949   3.721   1.518   1.605
 1644SOL    HW1 4950   3.735   1.545   1.510
 1644SOL    HW2 4951   3.804   1.540   1.658
 1645SOL     OW 4952   2.212   0.898   1.804
 1645SOL    HW1 4953   2.288   0.942   1.852
 1645SOL    HW2 4954   2.247   0.851   1.722
 1646SOL     OW 4955   3.402   0.274   0.125
 1646SOL    HW1 4956   3.341   0.199   0.148
 1646SOL    HW2 4957   3.424   0.326   0.208
 1647SOL     OW 4958   3.165   0.838   0.042
 1647SOL    HW1 4959   3.199   0.745   0.057
 1647SOL    HW2 4960   3.183   0.865  -0.053
 1648SOL     OW 4961   2.930   1.333   0.849
 1648SOL    HW1 4962   2.937   1.249   0.794
 1648SOL    HW2 4963   2.992   1.402   0.813
 1649SOL     OW 4964   2.181   0.810   0.949
 1649SOL    HW1 4965   2.274   0.846   0.954
 1649SOL    HW2 4966   2.175   0.725   1.001
 1650SOL     OW 4967   2.201   0.509   1.006
 1650SOL    HW1 4968   2.149   0.426   0.989
 1650SOL    HW2 4969   2.278   0.514   0.942
 1651SOL     OW 4970   3.000   0.380   1.678
 1651SOL    HW1 4971   2.955   0.443   1.742
 1651SOL    HW2 4972   3.093   0.411   1.661
 1652SOL     OW 4973   3.022   0.207   1.477
 1652SOL    HW1 4974   3.022   0.271   1.554
 1652SOL    HW2 4975   3.050   0.255   1.394
 1653SOL     OW 4976   1.870   1.326   0.200
 1653SOL    HW1 4977   1.777   1.347   0.169
 1653SOL    HW2 4978   1.880   1.227   0.213
 1654SOL     OW 4979   1.950   1.801   0.927
 1654SOL    HW1 4980   1.908   1.715   0.900
 1654SOL    HW2 4981   2.044   1.804   0.893
 1655SOL     OW 4982   2.366   1.568   0.910
 1655SOL    HW1 4983   2.432   1.642   0.919
 1655SOL    HW2 4984   2.410   1.489   0.868
 1656SOL     OW 4985   2.864   0.796   1.238
 1656SOL    HW1 4986   2.905   0.764   1.324
 1656SOL    HW2 4987   2.768   0.769   1.235
 1657SOL     OW 4988   1.902   0.544   1.114
 1657SOL    HW1 4989   1.987   0.511   1.073
 1657SOL    HW2 4990   1.915   0.559   1.212
 1658SOL     OW 4991   2.051   0.520   1.722
 1658SOL    HW1 4992   2.110   0.480   1.652
 1658SOL    HW2 4993   1.993   0.591   1.681
 1659SOL     OW 4994   3.231   0.950   1.660
 1659SOL    HW1 4995   3.270   1.039   1.680
 1659SOL    HW2 4996   3.241   0.930   1.563
 1660SOL     OW 4997   2.677   0.572   0.325
 1660SOL    HW1 4998   2.684   0.483   0.279
 1660SOL    HW2 4999   2.583   0.606   0.317
 1661SOL     OW 5000   3.519   0.604   1.206
 1661SOL    HW1 5001   3.481   0.535   1.268
 1661SOL    HW2 5002   3.601   0.568   1.162
 1662SOL     OW 5003   2.114   1.564   1.744
 1662SOL    HW1 5004   2.084   1.621   1.820
 1662SOL    HW2 5005   2.107   1.467   1.770
 1663SOL     OW 5006   2.533   0.464   1.269
 1663SOL    HW1 5007   2.499   0.375   1.239
 1663SOL    HW2 5008   2.559   0.518   1.189
 1664SOL     OW 5009   2.792   1.678   1.465
 1664SOL    HW1 5010   2.768   1.660   1.370
 1664SOL    HW2 5011   2.822   1.772   1.475
 1665SOL     OW 5012   2.335   0.500   0.191
 1665SOL    HW1 5013   2.396   0.580   0.195
 1665SOL    HW2 5014   2.240   0.531   0.198
 1666SOL     OW 5015   2.021   1.137   1.466
 1666SOL    HW1 5016   2.043   1.076   1.542
 1666SOL    HW2 5017   2.031   1.088   1.380
 1667SOL     OW 5018   3.209   1.059   1.234
 1667SOL    HW1 5019   3.233   0.996   1.160
 1667SOL    HW2 5020   3.119   1.099   1.216
 1668SOL     OW 5021   3.164   0.855   0.309
 1668SOL    HW1 5022   3.078   0.824   0.351
 1668SOL    HW2 5023   3.160   0.841   0.210
 1669SOL     OW 5024   3.621   1.747   1.154
 1669SOL    HW1 5025   3.682   1.777   1.081
 1669SOL    HW2 5026   3.583   1.658   1.132
 1670SOL     OW 5027   3.114   1.731   1.128
 1670SOL    HW1 5028   3.198   1.736   1.074
 1670SOL    HW2 5029   3.091   1.635   1.146
 1671SOL     OW 5030   1.945   1.258   1.022
 1671SOL    HW1 5031   1.940   1.257   1.122
 1671SOL    HW2 5032   1.862   1.217   0.984
 1672SOL     OW 5033   2.550   1.662   1.716
 1672SOL    HW1 5034   2.494   1.743   1.725
 1672SOL    HW2 5035   2.602   1.666   1.630
 1673SOL     OW 5036   2.765   0.086   0.133
 1673SOL    HW1 5037   2.816   0.087   0.047
 1673SOL    HW2 5038   2.821   0.044   0.204
 1674SOL     OW 5039   3.588   0.135   0.523
 1674SOL    HW1 5040   3.661   0.118   0.456
 1674SOL    HW2 5041   3.557   0.048   0.561
 1675SOL     OW 5042   3.250   1.573   0.477
 1675SOL    HW1 5043   3.317   1.585   0.403
 1675SOL    HW2 5044   3.210   1.662   0.500
 1676SOL     OW 5045   1.992   1.794   1.851
 1676SOL    HW1 5046   1.951   1.720   1.904
 1676SOL    HW2 5047   2.056   1.845   1.909
 1677SOL     OW 5048   3.142   0.927   0.672
 1677SOL    HW1 5049   3.202   0.846   0.674
 1677SOL    HW2 5050   3.182   0.996   0.612
 1678SOL     OW 5051   2.692   1.273   1.422
 1678SOL    HW1 5052   2.687   1.306   1.517
 1678SOL    HW2 5053   2.606   1.292   1.376
 1679SOL     OW 5054   2.534   1.616   0.154
 1679SOL    HW1 5055   2.543   1.626   0.055
 1679SOL    HW2 5056   2.494   1.527   0.175
 1680SOL     OW 5057   3.512   1.720   1.394
 1680SOL    HW1 5058   3.565   1.730   1.310
 1680SOL    HW2 5059   3.485   1.810   1.428
 1681SOL     OW 5060   3.703   0.175   0.963
 1681SOL    HW1 5061   3.742   0.090   0.927
 1681SOL    HW2 5062   3.605   0.177   0.944
 1682SOL     OW 5063   2.125   0.326   0.720
 1682SOL    HW1 5064   2.046   0.377   0.686
 1682SOL    HW2 5065   2.116   0.311   0.818
 1683SOL     OW 5066   3.056   1.612   0.031
 1683SOL    HW1 5067   3.062   1.519   0.068
 1683SOL    HW2 5068   2.997   1.612  -0.049
 1684SOL     OW 5069   2.684   1.002   1.372
 1684SOL    HW1 5070   2.724   1.001   1.280
 1684SOL    HW2 5071   2.694   1.094   1.412
 1685SOL     OW 5072   2.778   0.910   0.291
 1685SOL    HW1 5073   2.841   0.948   0.223
 1685SOL    HW2 5074   2.818   0.827   0.330
 1686SOL     OW 5075   3.366   1.607   0.044
 1686SOL    HW1 5076   3.274   1.644   0.051
 1686SOL    HW2 5077   3.404   1.627  -0.046
 1687SOL     OW 5078   2.234   1.288   1.490
 1687SOL    HW1 5079   2.221   1.381   1.456
 1687SOL    HW2 5080   2.150   1.236   1.477
 1688SOL     OW 5081   3.476   1.292   1.289
 1688SOL    HW1 5082   3.536   1.295   1.369
 1688SOL    HW2 5083   3.401   1.356   1.302
 1689SOL     OW 5084   2.901   1.098   0.696
 1689SOL    HW1 5085   2.831   1.051   0.750
 1689SOL    HW2 5086   2.960   1.030   0.653
 1690SOL     OW 5087   2.876   0.236   0.971
 1690SOL    HW1 5088   2.868   0.200   0.878
 1690SOL    HW2 5089   2.874   0.160   1.036
 1691SOL     OW 5090   2.452   1.487   0.491
 1691SOL    HW1 5091   2.494   1.429   0.421
 1691SOL    HW2 5092   2.408   1.566   0.447
 1692SOL     OW 5093   3.571   0.385   1.381
 1692SOL    HW1 5094   3.644   0.454   1.385
 1692SOL    HW2 5095   3.599   0.310   1.322
 1693SOL     OW 5096   2.117   1.348   0.290
 1693SOL    HW1 5097   2.021   1.349   0.263
 1693SOL    HW2 5098   2.129   1.401   0.374
 1694SOL     OW 5099   1.967   1.013   1.726
 1694SOL    HW1 5100   1.890   0.980   1.780
 1694SOL    HW2 5101   2.052   0.983   1.768
 1695SOL     OW 5102   2.534   0.203   1.489
 1695SOL    HW1 5103   2.624   0.187   1.449
 1695SOL    HW2 5104   2.542   0.208   1.588
 1696SOL     OW 5105   3.302   0.856   1.398
 1696SOL    HW1 5106   3.245   0.908   1.335
 1696SOL    HW2 5107   3.398   0.868   1.374
 1697SOL     OW 5108   1.934   0.166   0.318
 1697SOL    HW1 5109   1.917   0.249   0.264
 1697SOL    HW2 5110   2.024   0.129   0.296
 1698SOL     OW 5111   3.045   1.335   0.119
 1698SOL    HW1 5112   2.946   1.324   0.121
 1698SOL    HW2 5113   3.079   1.350   0.212
 1699SOL     OW 5114   2.475   0.842   1.431
 1699SOL    HW1 5115   2.531   0.923   1.414
 1699SOL    HW2 5116   2.534   0.762   1.434
 1700SOL     OW 5117   3.355   1.767   0.959
 1700SOL    HW1 5118   3.388   1.831   0.890
 1700SOL    HW2 5119   3.421   1.761   1.034
 1701SOL     OW 5120   2.578   0.565   1.708
 1701SOL    HW1 5121   2.597   0.630   1.782
 1701SOL    HW2 5122   2.638   0.485   1.717
 1702SOL     OW 5123   3.312   1.220   1.633
 1702SOL    HW1 5124   3.303   1.210   1.732
 1702SOL    HW2 5125   3.408   1.213   1.607
 1703SOL     OW 5126   2.252   1.741   1.560
 1703SOL    HW1 5127   2.161   1.782   1.558
 1703SOL    HW2 5128   2.245   1.647   1.592
 1704SOL     OW 5129   3.536   0.883   1.254
 1704SOL    HW1 5130   3.509   0.794   1.217
 1704SOL    HW2 5131   3.537   0.951   1.181
 1705SOL     OW 5132   3.087   0.325   0.449
 1705SOL    HW1 5133   3.152   0.251   0.438
 1705SOL    HW2 5134   3.107   0.375   0.533
 1706SOL     OW 5135   2.456   0.745   0.652
 1706SOL    HW1 5136   2.506   0.830   0.633
 1706SOL    HW2 5137   2.368   0.747   0.604
 1707SOL     OW 5138   3.639   0.342   1.642
 1707SOL    HW1 5139   3.622   0.373   1.548
 1707SOL    HW2 5140   3.555   0.305   1.680
 1708SOL     OW 5141   3.592   0.934   1.517
 1708SOL    HW1 5142   3.630   1.025   1.532
 1708SOL    HW2 5143   3.584   0.917   1.418
 1709SOL     OW 5144   2.721   1.374   0.016
 1709SOL    HW1 5145   2.675   1.389   0.104
 1709SOL    HW2 5146   2.765   1.459  -0.014
 1710SOL     OW 5147   2.523   1.790   0.953
 1710SOL    HW1 5148   2.477   1.878   0.940
 1710SOL    HW2 5149   2.622   1.802   0.946
 1711SOL     OW 5150   2.721   0.956   0.861
 1711SOL    HW1 5151   2.775   0.887   0.909
 1711SOL    HW2 5152   2.689   1.025   0.927
 1712SOL     OW 5153   2.945   0.984   0.087
 1712SOL    HW1 5154   2.922   1.037   0.005
 1712SOL    HW2 5155   3.026   0.928   0.068
 1713SOL     OW 5156   3.723   1.569   0.851
 1713SOL    HW1 5157   3.652   1.557   0.781
 1713SOL    HW2 5158   3.724   1.490   0.911
 1714SOL     OW 5159   2.083   1.314   1.844
 1714SOL    HW1 5160   2.018   1.241   1.823
 1714SOL    HW2 5161   2.087   1.328   1.942
 1715SOL     OW 5162   1.941   1.240   0.653
 1715SOL    HW1 5163   1.940   1.193   0.741
 1715SOL    HW2 5164   2.023   1.212   0.602
 1716SOL     OW 5165   2.534   1.391   1.624
 1716SOL    HW1 5166   2.456   1.341   1.662
 1716SOL    HW2 5167   2.531   1.486   1.655
 1717SOL     OW 5168   3.686   0.192   1.227
 1717SOL    HW1 5169   3.682   0.102   1.271
 1717SOL    HW2 5170   3.689   0.181   1.128
 1718SOL     OW 5171   2.290   0.424   0.520
 1718SOL    HW1 5172   2.320   0.352   0.458
 1718SOL    HW2 5173   2.251   0.384   0.603
 1719SOL     OW 5174   3.567   1.487   1.104
 1719SOL    HW1 5175   3.474   1.462   1.077
 1719SOL    HW2 5176   3.593   1.437   1.186
 1720SOL     OW 5177   2.179   0.547   1.280
 1720SOL    HW1 5178   2.217   0.488   1.352
 1720SOL    HW2 5179   2.219   0.521   1.192
 1721SOL     OW 5180   2.674   1.586   0.687
 1721SOL    HW1 5181   2.706   1.596   0.593
 1721SOL    HW2 5182   2.595   1.524   0.689
 1722SOL     OW 5183   3.286   0.214   1.112
 1722SOL    HW1 5184   3.338   0.149   1.167
 1722SOL    HW2 5185   3.237   0.277   1.173
 1723SOL     OW 5186   2.863   0.034   1.154
 1723SOL    HW1 5187   2.800  -0.038   1.123
 1723SOL    HW2 5188   2.956  -0.002   1.154
 1724SOL     OW 5189   2.632   1.330   0.301
 1724SOL    HW1 5190   2.586   1.243   0.318
 1724SOL    HW2 5191   2.723   1.327   0.342
 1725SOL     OW 5192   2.480   1.567   1.284
 1725SOL    HW1 5193   2.475   1.649   1.341
 1725SOL    HW2 5194   2.569   1.564   1.239
 1726SOL     OW 5195   3.214   0.052   0.168
 1726SOL    HW1 5196   3.249   0.011   0.084
 1726SOL    HW2 5197   3.124   0.014   0.188
 1727SOL     OW 5198   3.162   0.453   0.691
 1727SOL    HW1 5199   3.103   0.533   0.695
 1727SOL    HW2 5200   3.177   0.418   0.784
 1728SOL     OW 5201   3.455   0.221   0.882
 1728SOL    HW1 5202   3.371   0.220   0.936
 1728SOL    HW2 5203   3.457   0.304   0.826
 1729SOL     OW 5204   2.737   1.646   0.337
 1729SOL    HW1 5205   2.660   1.611   0.283
 1729SOL    HW2 5206   2.705   1.717   0.399
 1730SOL     OW 5207   2.092   0.628   1.975
 1730SOL    HW1 5208   1.999   0.626   2.012
 1730SOL    HW2 5209   2.093   0.589   1.883
 1731SOL     OW 5210   2.087   0.275   2.858
 1731SOL    HW1 5211   2.122   0.258   2.950
 1731SOL    HW2 5212   1.999   0.230   2.846
 1732SOL     OW 5213   1.881   0.368   2.509
 1732SOL    HW1 5214   1.799   0.411   2.548
 1732SOL    HW2 5215   1.853   0.295   2.446
 1733SOL     OW 5216   2.431   1.275   3.027
 1733SOL    HW1 5217   2.338   1.268   2.990
 1733SOL    HW2 5218   2.442   1.364   3.071
 1734SOL     OW 5219   3.417   1.511   2.565
 1734SOL    HW1 5220   3.360   1.495   2.646
 1734SOL    HW2 5221   3.358   1.521   2.485
 1735SOL     OW 5222   2.997   0.703   2.579
 1735SOL    HW1 5223   3.054   0.781   2.554
 1735SOL    HW2 5224   2.937   0.729   2.655
 1736SOL     OW 5225   3.617   0.607   2.093
 1736SOL    HW1 5226   3.605   0.594   1.994
 1736SOL    HW2 5227   3.587   0.526   2.142
 1737SOL     OW 5228   2.630   1.144   2.885
 1737SOL    HW1 5229   2.552   1.161   2.945
 1737SOL    HW2 5230   2.664   1.231   2.849
 1738SOL     OW 5231   2.712   0.798   3.685
 1738SOL    HW1 5232   2.708   0.874   3.750
 1738SOL    HW2 5233   2.734   0.834   3.594
 1739SOL     OW 5234   2.547   1.012   2.527
 1739SOL    HW1 5235   2.616   0.996   2.597
 1739SOL    HW2 5236   2.474   1.069   2.565
 1740SOL     OW 5237   2.548   1.161   3.665
 1740SOL    HW1 5238   2.608   1.240   3.679
 1740SOL    HW2 5239   2.462   1.192   3.624
 1741SOL     OW 5240   2.197   1.435   2.923
 1741SOL    HW1 5241   2.119   1.404   2.870
 1741SOL    HW2 5242   2.255   1.493   2.866
 1742SOL     OW 5243   3.322   1.505   3.201
 1742SOL    HW1 5244   3.346   1.599   3.227
 1742SOL    HW2 5245   3.306   1.451   3.283
 1743SOL     OW 5246   2.300   0.392   3.361
 1743SOL    HW1 5247   2.382   0.336   3.370
 1743SOL    HW2 5248   2.219   0.334   3.365
 1744SOL     OW 5249   3.465   0.447   2.599
 1744SOL    HW1 5250   3.391   0.493   2.549
 1744SOL    HW2 5251   3.516   0.515   2.652
 1745SOL     OW 5252   2.093   1.713   2.345
 1745SOL    HW1 5253   2.127   1.790   2.399
 1745SOL    HW2 5254   2.137   1.713   2.255
 1746SOL     OW 5255   2.989   1.341   3.552
 1746SOL    HW1 5256   3.036   1.341   3.640
 1746SOL    HW2 5257   2.941   1.254   3.541
 1747SOL     OW 5258   2.092   1.434   2.400
 1747SOL    HW1 5259   2.066   1.530   2.400
 1747SOL    HW2 5260   2.021   1.380   2.445
 1748SOL     OW 5261   2.102   1.091   2.748
 1748SOL    HW1 5262   2.116   1.007   2.800
 1748SOL    HW2 5263   2.047   1.155   2.803
 1749SOL     OW 5264   2.482   1.786   3.301
 1749SOL    HW1 5265   2.390   1.769   3.336
 1749SOL    HW2 5266   2.510   1.878   3.327
 1750SOL     OW 5267   2.468   0.964   1.985
 1750SOL    HW1 5268   2.475   1.048   1.931
 1750SOL    HW2 5269   2.514   0.977   2.073
 1751SOL     OW 5270   3.456   0.114   3.342
 1751SOL    HW1 5271   3.438   0.181   3.270
 1751SOL    HW2 5272   3.453   0.160   3.431
 1752SOL     OW 5273   1.984   0.643   2.425
 1752SOL    HW1 5274   1.939   0.555   2.442
 1752SOL    HW2 5275   1.983   0.697   2.509
 1753SOL     OW 5276   3.704   1.767   2.221
 1753SOL    HW1 5277   3.758   1.738   2.301
 1753SOL    HW2 5278   3.734   1.857   2.192
 1754SOL     OW 5279   1.889   1.596   1.979
 1754SOL    HW1 5280   1.870   1.500   2.000
 1754SOL    HW2 5281   1.856   1.654   2.054
 1755SOL     OW 5282   3.551   0.922   2.474
 1755SOL    HW1 5283   3.646   0.893   2.482
 1755SOL    HW2 5284   3.543   0.987   2.399
 1756SOL     OW 5285   3.503   1.108   2.294
 1756SOL    HW1 5286   3.589   1.110   2.242
 1756SOL    HW2 5287   3.517   1.155   2.382
 1757SOL     OW 5288   1.975   0.737   3.459
 1757SOL    HW1 5289   2.063   0.724   3.504
 1757SOL    HW2 5290   1.962   0.834   3.437
 1758SOL     OW 5291   2.475   1.365   2.588
 1758SOL    HW1 5292   2.426   1.278   2.597
 1758SOL    HW2 5293   2.452   1.408   2.501
 1759SOL     OW 5294   3.155   1.228   3.285
 1759SOL    HW1 5295   3.192   1.155   3.227
 1759SOL    HW2 5296   3.207   1.233   3.370
 1760SOL     OW 5297   2.671   0.004   2.364
 1760SOL    HW1 5298   2.711   0.095   2.355
 1760SOL    HW2 5299   2.571   0.012   2.370
 1761SOL     OW 5300   2.059   0.976   3.126
 1761SOL    HW1 5301   2.148   0.931   3.112
 1761SOL    HW2 5302   1.986   0.911   3.107
 1762SOL     OW 5303   3.387   0.999   2.052
 1762SOL    HW1 5304   3.324   0.923   2.065
 1762SOL    HW2 5305   3.435   1.017   2.138
 1763SOL     OW 5306   3.049   1.792   3.478
 1763SOL    HW1 5307   3.073   1.852   3.402
 1763SOL    HW2 5308   3.056   1.697   3.448
 1764SOL     OW 5309   2.179   0.251   3.663
 1764SOL    HW1 5310   2.250   0.322   3.669
 1764SOL    HW2 5311   2.091   0.290   3.691
 1765SOL     OW 5312   3.328   1.417   2.815
 1765SOL    HW1 5313   3.269   1.423   2.895
 1765SOL    HW2 5314   3.313   1.329   2.769
 1766SOL     OW 5315   3.529   1.714   2.434
 1766SOL    HW1 5316   3.488   1.691   2.346
 1766SOL    HW2 5317   3.511   1.640   2.499
 1767SOL     OW 5318   2.460   0.729   2.132
 1767SOL    HW1 5319   2.484   0.798   2.064
 1767SOL    HW2 5320   2.382   0.762   2.186
 1768SOL     OW 5321   3.143   0.345   2.806
 1768SOL    HW1 5322   3.057   0.295   2.793
 1768SOL    HW2 5323   3.205   0.291   2.862
 1769SOL     OW 5324   3.438   1.662   2.169
 1769SOL    HW1 5325   3.527   1.708   2.172
 1769SOL    HW2 5326   3.417   1.638   2.074
 1770SOL     OW 5327   2.669   0.605   3.327
 1770SOL    HW1 5328   2.622   0.602   3.416
 1770SOL    HW2 5329   2.618   0.550   3.261
 1771SOL     OW 5330   3.256   0.469   3.536
 1771SOL    HW1 5331   3.236   0.512   3.624
 1771SOL    HW2 5332   3.334   0.407   3.545
 1772SOL     OW 5333   2.835   0.890   3.434
 1772SOL    HW1 5334   2.881   0.806   3.405
 1772SOL    HW2 5335   2.779   0.924   3.359
 1773SOL     OW 5336   2.853   0.410   3.104
 1773SOL    HW1 5337   2.776   0.444   3.158
 1773SOL    HW2 5338   2.819   0.359   3.025
 1774SOL     OW 5339   2.903   0.701   2.291
 1774SOL    HW1 5340   2.929   0.697   2.387
 1774SOL    HW2 5341   2.818   0.650   2.277
 1775SOL     OW 5342   1.938   0.811   2.651
 1775SOL    HW1 5343   2.037   0.799   2.660
 1775SOL    HW2 5344   1.914   0.906   2.672
 1776SOL     OW 5345   1.992   1.821   3.433
 1776SOL    HW1 5346   1.982   1.806   3.532
 1776SOL    HW2 5347   1.906   1.857   3.397
 1777SOL     OW 5348   2.727   0.348   2.057
 1777SOL    HW1 5349   2.786   0.411   2.008
 1777SOL    HW2 5350   2.746   0.254   2.028
 1778SOL     OW 5351   3.581   0.585   3.693
 1778SOL    HW1 5352   3.555   0.674   3.657
 1778SOL    HW2 5353   3.579   0.517   3.620
 1779SOL     OW 5354   3.224   1.144   2.407
 1779SOL    HW1 5355   3.307   1.115   2.359
 1779SOL    HW2 5356   3.175   1.211   2.351
 1780SOL     OW 5357   2.412   0.196   2.747
 1780SOL    HW1 5358   2.407   0.191   2.847
 1780SOL    HW2 5359   2.414   0.292   2.718
 1781SOL     OW 5360   2.870   1.456   2.339
 1781SOL    HW1 5361   2.824   1.528   2.287
 1781SOL    HW2 5362   2.866   1.476   2.437
 1782SOL     OW 5363   2.213   1.801   2.715
 1782SOL    HW1 5364   2.263   1.715   2.721
 1782SOL    HW2 5365   2.278   1.878   2.712
 1783SOL     OW 5366   3.657   1.066   2.735
 1783SOL    HW1 5367   3.595   1.051   2.659
 1783SOL    HW2 5368   3.605   1.077   2.820
 1784SOL     OW 5369   3.089   1.550   3.368
 1784SOL    HW1 5370   3.095   1.473   3.432
 1784SOL    HW2 5371   3.037   1.524   3.288
 1785SOL     OW 5372   2.183   0.943   2.104
 1785SOL    HW1 5373   2.265   0.982   2.062
 1785SOL    HW2 5374   2.156   0.861   2.055
 1786SOL     OW 5375   3.320   0.735   2.590
 1786SOL    HW1 5376   3.315   0.670   2.665
 1786SOL    HW2 5377   3.400   0.794   2.603
 1787SOL     OW 5378   2.323   1.266   3.589
 1787SOL    HW1 5379   2.273   1.267   3.503
 1787SOL    HW2 5380   2.260   1.248   3.665
 1788SOL     OW 5381   2.973   1.776   2.099
 1788SOL    HW1 5382   2.913   1.714   2.149
 1788SOL    HW2 5383   3.004   1.732   2.014
 1789SOL     OW 5384   2.064   0.285   3.360
 1789SOL    HW1 5385   1.984   0.345   3.347
 1789SOL    HW2 5386   2.054   0.236   3.446
 1790SOL     OW 5387   3.494   1.377   1.943
 1790SOL    HW1 5388   3.462   1.471   1.933
 1790SOL    HW2 5389   3.418   1.314   1.931
 1791SOL     OW 5390   2.326   1.743   2.185
 1791SOL    HW1 5391   2.359   1.782   2.271
 1791SOL    HW2 5392   2.402   1.736   2.120
 1792SOL     OW 5393   3.262   0.107   2.288
 1792SOL    HW1 5394   3.238   0.070   2.198
 1792SOL    HW2 5395   3.361   0.123   2.292
 1793SOL     OW 5396   2.111   1.785   3.103
 1793SOL    HW1 5397   2.168   1.720   3.153
 1793SOL    HW2 5398   2.095   1.752   3.010
 1794SOL     OW 5399   2.802   1.698   2.766
 1794SOL    HW1 5400   2.882   1.641   2.787
 1794SOL    HW2 5401   2.753   1.658   2.689
 1795SOL     OW 5402   2.244   0.700   2.342
 1795SOL    HW1 5403   2.289   0.610   2.339
 1795SOL    HW2 5404   2.150   0.689   2.375
 1796SOL     OW 5405   3.409   0.222   3.591
 1796SOL    HW1 5406   3.404   0.259   3.683
 1796SOL    HW2 5407   3.337   0.153   3.579
 1797SOL     OW 5408   2.476   0.122   1.979
 1797SOL    HW1 5409   2.574   0.100   1.986
 1797SOL    HW2 5410   2.445   0.105   1.886
 1798SOL     OW 5411   2.643   0.264   3.611
 1798SOL    HW1 5412   2.710   0.203   3.654
 1798SOL    HW2 5413   2.570   0.283   3.676
 1799SOL     OW 5414   2.750   1.514   3.057
 1799SOL    HW1 5415   2.727   1.489   2.963
 1799SOL    HW2 5416   2.811   1.445   3.096
 1800SOL     OW 5417   3.213   0.590   3.295
 1800SOL    HW1 5418   3.241   0.547   3.380
 1800SOL    HW2 5419   3.238   0.686   3.296
 1801SOL     OW 5420   2.665   1.402   2.786
 1801SOL    HW1 5421   2.755   1.416   2.744
 1801SOL    HW2 5422   2.594   1.404   2.715
 1802SOL     OW 5423   2.784   0.503   2.761
 1802SOL    HW1 5424   2.759   0.494   2.665
 1802SOL    HW2 5425   2.832   0.421   2.792
 1803SOL     OW 5426   2.401   0.064   2.374
 1803SOL    HW1 5427   2.320   0.065   2.432
 1803SOL    HW2 5428   2.404   0.147   2.319
 1804SOL     OW 5429   3.296   1.188   1.903
 1804SOL    HW1 5430   3.328   1.112   1.960
 1804SOL    HW2 5431   3.204   1.215   1.933
 1805SOL     OW 5432   2.159   0.035   2.033
 1805SOL    HW1 5433   2.208   0.119   2.012
 1805SOL    HW2 5434   2.221  -0.030   2.078
 1806SOL     OW 5435   2.797   0.236   2.342
 1806SOL    HW1 5436   2.749   0.277   2.264
 1806SOL    HW2 5437   2.896   0.234   2.323
 1807SOL     OW 5438   2.938   0.683   3.326
 1807SOL    HW1 5439   2.858   0.622   3.329
 1807SOL    HW2 5440   3.019   0.630   3.302
 1808SOL     OW 5441   3.089   1.570   2.655
 1808SOL    HW1 5442   3.110   1.644   2.590
 1808SOL    HW2 5443   3.157   1.570   2.728
 1809SOL     OW 5444   2.321   1.152   2.603
 1809SOL    HW1 5445   2.250   1.125   2.668
 1809SOL    HW2 5446   2.295   1.124   2.510
 1810SOL     OW 5447   3.133   1.797   2.453
 1810SOL    HW1 5448   3.177   1.861   2.389
 1810SOL    HW2 5449   3.083   1.849   2.523
 1811SOL     OW 5450   2.894   0.549   1.878
 1811SOL    HW1 5451   2.853   0.631   1.839
 1811SOL    HW2 5452   2.958   0.575   1.951
 1812SOL     OW 5453   1.940   0.556   3.248
 1812SOL    HW1 5454   2.032   0.555   3.207
 1812SOL    HW2 5455   1.934   0.630   3.315
 1813SOL     OW 5456   2.423   0.222   3.009
 1813SOL    HW1 5457   2.461   0.138   3.046
 1813SOL    HW2 5458   2.335   0.241   3.053
 1814SOL     OW 5459   2.728   0.454   2.504
 1814SOL    HW1 5460   2.696   0.526   2.442
 1814SOL    HW2 5461   2.752   0.373   2.451
 1815SOL     OW 5462   2.879   0.039   2.615
 1815SOL    HW1 5463   2.807   0.044   2.546
 1815SOL    HW2 5464   2.855  -0.030   2.684
 1816SOL     OW 5465   3.291   1.173   2.729
 1816SOL    HW1 5466   3.236   1.089   2.722
 1816SOL    HW2 5467   3.317   1.202   2.637
 1817SOL     OW 5468   3.328   0.590   2.854
 1817SOL    HW1 5469   3.298   0.495   2.861
 1817SOL    HW2 5470   3.401   0.606   2.920
 1818SOL     OW 5471   3.719   0.833   2.239
 1818SOL    HW1 5472   3.761   0.769   2.303
 1818SOL    HW2 5473   3.681   0.782   2.161
 1819SOL     OW 5474   2.350   1.385   2.036
 1819SOL    HW1 5475   2.263   1.370   2.083
 1819SOL    HW2 5476   2.333   1.411   1.941
 1820SOL     OW 5477   3.526   1.280   2.519
 1820SOL    HW1 5478   3.625   1.288   2.533
 1820SOL    HW2 5479   3.481   1.364   2.550
 1821SOL     OW 5480   3.252   0.575   1.940
 1821SOL    HW1 5481   3.198   0.554   2.021
 1821SOL    HW2 5482   3.343   0.534   1.949
 1822SOL     OW 5483   2.389   0.256   2.190
 1822SOL    HW1 5484   2.416   0.197   2.115
 1822SOL    HW2 5485   2.389   0.351   2.159
 1823SOL     OW 5486   3.616   1.223   3.450
 1823SOL    HW1 5487   3.707   1.184   3.437
 1823SOL    HW2 5488   3.624   1.319   3.474
 1824SOL     OW 5489   2.926   1.347   3.202
 1824SOL    HW1 5490   2.846   1.324   3.257
 1824SOL    HW2 5491   3.009   1.321   3.251
 1825SOL     OW 5492   3.454   1.629   3.487
 1825SOL    HW1 5493   3.481   1.663   3.397
 1825SOL    HW2 5494   3.533   1.591   3.533
 1826SOL     OW 5495   2.973   1.195   2.962
 1826SOL    HW1 5496   2.933   1.239   3.043
 1826SOL    HW2 5497   2.932   1.232   2.879
 1827SOL     OW 5498   3.500   1.099   2.941
 1827SOL    HW1 5499   3.505   1.180   3.000
 1827SOL    HW2 5500   3.414   1.101   2.890
 1828SOL     OW 5501   2.777   0.089   3.264
 1828SOL    HW1 5502   2.802   0.069   3.169
 1828SOL    HW2 5503   2.849   0.145   3.306
 1829SOL     OW 5504   2.842   1.116   3.581
 1829SOL    HW1 5505   2.743   1.122   3.591
 1829SOL    HW2 5506   2.865   1.036   3.525
 1830SOL     OW 5507   2.567   1.050   2.230
 1830SOL    HW1 5508   2.553   1.057   2.329
 1830SOL    HW2 5509   2.651   0.999   2.212
 1831SOL     OW 5510   2.272   0.813   3.113
 1831SOL    HW1 5511   2.358   0.825   3.163
 1831SOL    HW2 5512   2.230   0.726   3.140
 1832SOL     OW 5513   3.136   0.386   3.124
 1832SOL    HW1 5514   3.157   0.460   3.188
 1832SOL    HW2 5515   3.047   0.403   3.081
 1833SOL     OW 5516   1.926   1.564   3.193
 1833SOL    HW1 5517   1.880   1.646   3.159
 1833SOL    HW2 5518   2.024   1.583   3.202
 1834SOL     OW 5519   2.229   1.100   2.363
 1834SOL    HW1 5520   2.222   1.183   2.307
 1834SOL    HW2 5521   2.233   1.020   2.303
 1835SOL     OW 5522   2.428   0.537   2.727
 1835SOL    HW1 5523   2.440   0.603   2.653
 1835SOL    HW2 5524   2.474   0.571   2.810
 1836SOL     OW 5525   3.114   1.348   2.250
 1836SOL    HW1 5526   3.164   1.425   2.290
 1836SOL    HW2 5527   3.019   1.350   2.282
 1837SOL     OW 5528   3.134   1.445   3.004
 1837SOL    HW1 5529   3.181   1.458   3.091
 1837SOL    HW2 5530   3.068   1.371   3.013
 1838SOL     OW 5531   3.444   0.639   2.334
 1838SOL    HW1 5532   3.413   0.700   2.407
 1838SOL    HW2 5533   3.494   0.691   2.265
 1839SOL     OW 5534   2.216   1.510   3.191
 1839SOL    HW1 5535   2.195   1.466   3.104
 1839SOL    HW2 5536   2.313   1.536   3.194
 1840SOL     OW 5537   2.264   0.751   3.460
 1840SOL    HW1 5538   2.332   0.806   3.413
 1840SOL    HW2 5539   2.304   0.663   3.487
 1841SOL     OW 5540   3.449   0.779   3.532
 1841SOL    HW1 5541   3.357   0.817   3.527
 1841SOL    HW2 5542   3.509   0.826   3.467
 1842SOL     OW 5543   2.875   0.105   3.632
 1842SOL    HW1 5544   2.881   0.190   3.580
 1842SOL    HW2 5545   2.907   0.029   3.575
 1843SOL     OW 5546   2.366   0.050   3.602
 1843SOL    HW1 5547   2.324  -0.007   3.532
 1843SOL    HW2 5548   2.300   0.119   3.634
 1844SOL     OW 5549   2.435   0.870   2.891
 1844SOL    HW1 5550   2.479   0.959   2.882
 1844SOL    HW2 5551   2.372   0.870   2.968
 1845SOL     OW 5552   3.222   0.862   2.907
 1845SOL    HW1 5553   3.147   0.862   2.841
 1845SOL    HW2 5554   3.259   0.770   2.916
 1846SOL     OW 5555   3.071   0.525   2.137
 1846SOL    HW1 5556   3.084   0.441   2.191
 1846SOL    HW2 5557   3.042   0.599   2.197
 1847SOL     OW 5558   2.169   0.213   3.093
 1847SOL    HW1 5559   2.146   0.250   3.183
 1847SOL    HW2 5560   2.139   0.118   3.087
 1848SOL     OW 5561   1.899   1.310   3.144
 1848SOL    HW1 5562   1.952   1.261   3.212
 1848SOL    HW2 5563   1.921   1.408   3.149
 1849SOL     OW 5564   2.594   0.634   2.926
 1849SOL    HW1 5565   2.653   0.608   2.850
 1849SOL    HW2 5566   2.566   0.730   2.915
 1850SOL     OW 5567   3.590   0.935   3.716
 1850SOL    HW1 5568   3.544   0.928   3.627
 1850SOL    HW2 5569   3.528   0.979   3.782
 1851SOL     OW 5570   2.169   0.063   2.480
 1851SOL    HW1 5571   2.158   0.157   2.513
 1851SOL    HW2 5572   2.164   0.000   2.557
 1852SOL     OW 5573   3.484   0.367   2.236
 1852SOL    HW1 5574   3.486   0.291   2.300
 1852SOL    HW2 5575   3.436   0.444   2.276
 1853SOL     OW 5576   2.885   0.766   2.828
 1853SOL    HW1 5577   2.900   0.787   2.924
 1853SOL    HW2 5578   2.855   0.671   2.819
 1854SOL     OW 5579   2.842   1.573   3.562
 1854SOL    HW1 5580   2.822   1.617   3.474
 1854SOL    HW2 5581   2.881   1.482   3.546
 1855SOL     OW 5582   3.721   1.518   3.467
 1855SOL    HW1 5583   3.735   1.545   3.372
 1855SOL    HW2 5584   3.804   1.540   3.520
 1856SOL     OW 5585   2.212   0.898   3.666
 1856SOL    HW1 5586   2.288   0.942   3.714
 1856SOL    HW2 5587   2.247   0.851   3.584
 1857SOL     OW 5588   3.402   0.274   1.987
 1857SOL    HW1 5589   3.341   0.199   2.010
 1857SOL    HW2 5590   3.424   0.326   2.070
 1858SOL     OW 5591   3.165   0.838   1.904
 1858SOL    HW1 5592   3.199   0.745   1.919
 1858SOL    HW2 5593   3.183   0.865   1.809
 1859SOL     OW 5594   2.930   1.333   2.711
 1859SOL    HW1 5595   2.937   1.249   2.656
 1859SOL    HW2 5596   2.992   1.402   2.675
 1860SOL     OW 5597   2.181   0.810   2.811
 1860SOL    HW1 5598   2.274   0.846   2.816
 1860SOL    HW2 5599   2.175   0.725   2.863
 1861SOL     OW 5600   2.201   0.509   2.868
 1861SOL    HW1 5601   2.149   0.426   2.851
 1861SOL    HW2 5602   2.278   0.514   2.804
 1862SOL     OW 5603   3.000   0.380   3.540
 1862SOL    HW1 5604   2.955   0.443   3.604
 1862SOL    HW2 5605   3.093   0.411   3.523
 1863SOL     OW 5606   3.022   0.207   3.339
 1863SOL    HW1 5607   3.022   0.271   3.416
 1863SOL    HW2 5608   3.050   0.255   3.256
 1864SOL     OW 5609   1.870   1.326   2.062
 1864SOL    HW1 5610   1.777   1.347   2.031
 1864SOL    HW2 5611   1.880   1.227   2.075
 1865SOL     OW 5612   1.950   1.801   2.789
 1865SOL    HW1 5613   1.908   1.715   2.762
 1865SOL    HW2 5614   2.044   1.804   2.755
 1866SOL     OW 5615   2.366   1.568   2.772
 1866SOL    HW1 5616   2.432   1.642   2.781
 1866SOL    HW2 5617   2.410   1.489   2.730
 1867SOL     OW 5618   2.864   0.796   3.100
 1867SOL    HW1 5619   2.905   0.764   3.186
 1867SOL    HW2 5620   2.768   0.769   3.097
 1868SOL     OW 5621   1.902   0.544   2.976
 1868SOL    HW1 5622   1.987   0.511   2.935
 1868SOL    HW2 5623   1.915   0.559   3.074
 1869SOL     OW 5624   2.051   0.520   3.584
 1869SOL    HW1 5625   2.110   0.480   3.514
 1869SOL    HW2 5626   1.993   0.591   3.543
 1870SOL     OW 5627   3.231   0.950   3.522
 1870SOL    HW1 5628   3.270   1.039   3.542
 1870SOL    HW2 5629   3.241   0.930   3.425
 1871SOL     OW 5630   2.677   0.572   2.187
 1871SOL    HW1 5631   2.684   0.483   2.141
 1871SOL    HW2 5632   2.583   0.606   2.179
 1872SOL     OW 5633   3.519   0.604   3.068
 1872SOL    HW1 5634   3.481   0.535   3.130
 1872SOL    HW2 5635   3.601   0.568   3.024
 1873SOL     OW 5636   2.114   1.564   3.606
 1873SOL    HW1 5637   2.084   1.621   3.682
 1873SOL    HW2 5638   2.107   1.467   3.632
 1874SOL     OW 5639   2.533   0.464   3.131
 1874SOL    HW1 5640   2.499   0.375   3.101
 1874SOL    HW2 5641   2.559   0.518   3.051
 1875SOL     OW 5642   2.792   1.678   3.327
 1875SOL    HW1 5643   2.768   1.660   3.232
 1875SOL    HW2 5644   2.822   1.772   3.337
 1876SOL     OW 5645   2.335   0.500   2.053
 1876SOL    HW1 5646   2.396   0.580   2.057
 1876SOL    HW2 5647   2.240   0.531   2.060
 1877SOL     OW 5648   2.021   1.137   3.328
 1877SOL    HW1 5649   2.043   1.076   3.404
 1877SOL    HW2 5650   2.031   1.088   3.242
 1878SOL     OW 5651   3.209   1.059   3.096
 1878SOL    HW1 5652   3.233   0.996   3.022
 1878SOL    HW2 5653   3.119   1.099   3.078
 1879SOL     OW 5654   3.164   0.855   2.171
 1879SOL    HW1 5655   3.078   0.824   2.213
 1879SOL    HW2 5656   3.160   0.841   2.072
 1880SOL     OW 5657   3.621   1.747   3.016
 1880SOL    HW1 5658   3.682   1.777   2.943
 1880SOL    HW2 5659   3.583   1.658   2.994
 1881SOL     OW 5660   3.114   1.731   2.990
 1881SOL    HW1 5661   3.198   1.736   2.936
 1881SOL    HW2 5662   3.091   1.635   3.008
 1882SOL     OW 5663   1.945   1.258   2.884
 1882SOL    HW1 5664   1.940   1.257   2.984
 1882SOL    HW2 5665   1.862   1.217   2.846
 1883SOL     OW 5666   2.550   1.662   3.578
 1883SOL    HW1 5667   2.494   1.743   3.587
 1883SOL    HW2 5668   2.602   1.666   3.492
 1884SOL     OW 5669   3.588   0.135   2.385
 1884SOL    HW1 5670   3.661   0.118   2.318
 1884SOL    HW2 5671   3.557   0.048   2.423
 1885SOL     OW 5672   3.250   1.573   2.339
 1885SOL    HW1 5673   3.317   1.585   2.265
 1885SOL    HW2 5674   3.210   1.662   2.362
 1886SOL     OW 5675   1.992   1.794   3.713
 1886SOL    HW1 5676   1.951   1.720   3.766
 1886SOL    HW2 5677   2.056   1.845   3.771
 1887SOL     OW 5678   3.142   0.927   2.534
 1887SOL    HW1 5679   3.202   0.846   2.536
 1887SOL    HW2 5680   3.182   0.996   2.474
 1888SOL     OW 5681   2.692   1.273   3.284
 1888SOL    HW1 5682   2.687   1.306   3.379
 1888SOL    HW2 5683   2.606   1.292   3.238
 1889SOL     OW 5684   2.534   1.616   2.016
 1889SOL    HW1 5685   2.543   1.626   1.917
 1889SOL    HW2 5686   2.494   1.527   2.037
 1890SOL     OW 5687   3.512   1.720   3.256
 1890SOL    HW1 5688   3.565   1.730   3.172
 1890SOL    HW2 5689   3.485   1.810   3.290
 1891SOL     OW 5690   3.703   0.175   2.825
 1891SOL    HW1 5691   3.742   0.090   2.789
 1891SOL    HW2 5692   3.605   0.177   2.806
 1892SOL     OW 5693   2.125   0.326   2.582
 1892SOL    HW1 5694   2.046   0.377   2.548
 1892SOL    HW2 5695   2.116   0.311   2.680
 1893SOL     OW 5696   3.056   1.612   1.893
 1893SOL    HW1 5697   3.062   1.519   1.930
 1893SOL    HW2 5698   2.997   1.612   1.813
 1894SOL     OW 5699   2.684   1.002   3.234
 1894SOL    HW1 5700   2.724   1.001   3.142
 1894SOL    HW2 5701   2.694   1.094   3.274
 1895SOL     OW 5702   2.778   0.910   2.153
 1895SOL    HW1 5703   2.841   0.948   2.085
 1895SOL    HW2 5704   2.818   0.827   2.192
 1896SOL     OW 5705   3.366   1.607   1.906
 1896SOL    HW1 5706   3.274   1.644   1.913
 1896SOL    HW2 5707   3.404   1.627   1.816
 1897SOL     OW 5708   2.234   1.288   3.352
 1897SOL    HW1 5709   2.221   1.381   3.318
 1897SOL    HW2 5710   2.150   1.236   3.339
 1898SOL     OW 5711   3.476   1.292   3.151
 1898SOL    HW1 5712   3.536   1.295   3.231
 1898SOL    HW2 5713   3.401   1.356   3.164
 1899SOL     OW 5714   2.901   1.098   2.558
 1899SOL    HW1 5715   2.831   1.051   2.612
 1899SOL    HW2 5716   2.960   1.030   2.515
 1900SOL     OW 5717   2.876   0.236   2.833
 1900SOL    HW1 5718   2.868   0.200   2.740
 1900SOL    HW2 5719   2.874   0.160   2.898
 1901SOL     OW 5720   2.452   1.487   2.353
 1901SOL    HW1 5721   2.494   1.429   2.283
 1901SOL    HW2 5722   2.408   1.566   2.309
 1902SOL     OW 5723   3.571   0.385   3.243
 1902SOL    HW1 5724   3.644   0.454   3.247
 1902SOL    HW2 5725   3.599   0.310   3.184
 1903SOL     OW 5726   2.117   1.348   2.152
 1903SOL    HW1 5727   2.021   1.349   2.125
 1903SOL    HW2 5728   2.129   1.401   2.236
 1904SOL     OW 5729   1.967   1.013   3.588
 1904SOL    HW1 5730   1.890   0.980   3.642
 1904SOL    HW2 5731   2.052   0.983   3.630
 1905SOL     OW 5732   2.534   0.203   3.351
 1905SOL    HW1 5733   2.624   0.187   3.311
 1905SOL    HW2 5734   2.542   0.208   3.450
 1906SOL     OW 5735   1.937   0.345   1.895
 1906SOL    HW1 5736   1.845   0.317   1.866
 1906SOL    HW2 5737   1.968   0.422   1.839
 1907SOL     OW 5738   3.302   0.856   3.260
 1907SOL    HW1 5739   3.245   0.908   3.197
 1907SOL    HW2 5740   3.398   0.868   3.236
 1908SOL     OW 5741   1.934   0.166   2.180
 1908SOL    HW1 5742   1.917   0.249   2.126
 1908SOL    HW2 5743   2.024   0.129   2.158
 1909SOL     OW 5744   3.045   1.335   1.981
 1909SOL    HW1 5745   2.946   1.324   1.983
 1909SOL    HW2 5746   3.079   1.350   2.074
 1910SOL     OW 5747   2.475   0.842   3.293
 1910SOL    HW1 5748   2.531   0.923   3.276
 1910SOL    HW2 5749   2.534   0.762   3.296
 1911SOL     OW 5750   3.355   1.767   2.821
 1911SOL    HW1 5751   3.388   1.831   2.752
 1911SOL    HW2 5752   3.421   1.761   2.896
 1912SOL     OW 5753   2.578   0.565   3.570
 1912SOL    HW1 5754   2.597   0.630   3.644
 1912SOL    HW2 5755   2.638   0.485   3.579
 1913SOL     OW 5756   3.312   1.220   3.495
 1913SOL    HW1 5757   3.303   1.210   3.594
 1913SOL    HW2 5758   3.408   1.213   3.469
 1914SOL     OW 5759   2.252   1.741   3.422
 1914SOL    HW1 5760   2.161   1.782   3.420
 1914SOL    HW2 5761   2.245   1.647   3.454
 1915SOL     OW 5762   3.536   0.883   3.116
 1915SOL    HW1 5763   3.509   0.794   3.079
 1915SOL    HW2 5764   3.537   0.951   3.043
 1916SOL     OW 5765   3.087   0.325   2.311
 1916SOL    HW1 5766   3.152   0.251   2.300
 1916SOL    HW2 5767   3.107   0.375   2.395
 1917SOL     OW 5768   2.456   0.745   2.514
 1917SOL    HW1 5769   2.506   0.830   2.495
 1917SOL    HW2 5770   2.368   0.747   2.466
 1918SOL     OW 5771   3.639   0.342   3.504
 1918SOL    HW1 5772   3.622   0.373   3.410
 1918SOL    HW2 5773   3.555   0.305   3.542
 1919SOL     OW 5774   3.592   0.934   3.379
 1919SOL    HW1 5775   3.630   1.025   3.394
 1919SOL    HW2 5776   3.584   0.917   3.280
 1920SOL     OW 5777   2.721   1.374   1.878
 1920SOL    HW1 5778   2.675   1.389   1.966
 1920SOL    HW2 5779   2.765   1.459   1.848
 1921SOL     OW 5780   2.523   1.790   2.815
 1921SOL    HW1 5781   2.477   1.878   2.802
 1921SOL    HW2 5782   2.622   1.802   2.808
 1922SOL     OW 5783   2.721   0.956   2.723
 1922SOL    HW1 5784   2.775   0.887   2.771
 1922SOL    HW2 5785   2.689   1.025   2.789
 1923SOL     OW 5786   2.945   0.984   1.949
 1923SOL    HW1 5787   2.922   1.037   1.867
 1923SOL    HW2 5788   3.026   0.928   1.930
 1924SOL     OW 5789   3.723   1.569   2.713
 1924SOL    HW1 5790   3.652   1.557   2.643
 1924SOL    HW2 5791   3.724   1.490   2.773
 1925SOL     OW 5792   2.083   1.314   3.706
 1925SOL    HW1 5793   2.018   1.241   3.685
 1925SOL    HW2 5794   2.087   1.328   3.804
 1926SOL     OW 5795   1.941   1.240   2.515
 1926SOL    HW1 5796   1.940   1.193   2.603
 1926SOL    HW2 5797   2.023   1.212   2.464
 1927SOL     OW 5798   2.534   1.391   3.486
 1927SOL    HW1 5799   2.456   1.341   3.524
 1927SOL    HW2 5800   2.531   1.486   3.517
 1928SOL     OW 5801   3.686   0.192   3.089
 1928SOL    HW1 5802   3.682   0.102   3.133
 1928SOL    HW2 5803   3.689   0.181   2.990
 1929SOL     OW 5804   2.290   0.424   2.382
 1929SOL    HW1 5805   2.320   0.352   2.320
 1929SOL    HW2 5806   2.251   0.384   2.465
 1930SOL     OW 5807   3.567   1.487   2.966
 1930SOL    HW1 5808   3.474   1.462   2.939
 1930SOL    HW2 5809   3.593   1.437   3.048
 1931SOL     OW 5810   2.179   0.547   3.142
 1931SOL    HW1 5811   2.217   0.488   3.214
 1931SOL    HW2 5812   2.219   0.521   3.054
 1932SOL     OW 5813   2.674   1.586   2.549
 1932SOL    HW1 5814   2.706   1.596   2.455
 1932SOL    HW2 5815   2.595   1.524   2.551
 1933SOL     OW 5816   3.286   0.214   2.974
 1933SOL    HW1 5817   3.338   0.149   3.029
 1933SOL    HW2 5818   3.237   0.277   3.035
 1934SOL     OW 5819   2.863   0.034   3.016
 1934SOL    HW1 5820   2.800  -0.038   2.985
 1934SOL    HW2 5821   2.956  -0.002   3.016
 1935SOL     OW 5822   2.632   1.330   2.163
 1935SOL    HW1 5823   2.586   1.243   2.180
 1935SOL    HW2 5824   2.723   1.327   2.204
 1936SOL     OW 5825   2.480   1.567   3.146
 1936SOL    HW1 5826   2.475   1.649   3.203
 1936SOL    HW2 5827   2.569   1.564   3.101
 1937SOL     OW 5828   3.214   0.052   2.030
 1937SOL    HW1 5829   3.249   0.011   1.946
 1937SOL    HW2 5830   3.124   0.014   2.050
 1938SOL     OW 5831   3.162   0.453   2.553
 1938SOL    HW1 5832   3.103   0.533   2.557
 1938SOL    HW2 5833   3.177   0.418   2.646
 1939SOL     OW 5834   3.455   0.221   2.744
 1939SOL    HW1 5835   3.371   0.220   2.798
 1939SOL    HW2 5836   3.457   0.304   2.688
 1940SOL     OW 5837   1.901   1.077   2.162
 1940SOL    HW1 5838   2.000   1.066   2.153
 1940SOL    HW2 5839   1.861   0.991   2.194
 1941SOL     OW 5840   2.737   1.646   2.199
 1941SOL    HW1 5841   2.660   1.611   2.145
 1941SOL    HW2 5842   2.705   1.717   2.261
 1942SOL     OW 5843   2.092   0.628   3.837
 1942SOL    HW1 5844   1.999   0.626   3.874
 1942SOL    HW2 5845   2.093   0.589   3.745
 1943SOL     OW 5846   2.087   0.275   4.720
 1943SOL    HW1 5847   2.122   0.258   4.812
 1943SOL    HW2 5848   1.999   0.230   4.708
 1944SOL     OW 5849   1.881   0.368   4.371
 1944SOL    HW1 5850   1.799   0.411   4.410
 1944SOL    HW2 5851   1.853   0.295   4.308
 1945SOL     OW 5852   2.431   1.275   4.889
 1945SOL    HW1 5853   2.338   1.268   4.852
 1945SOL    HW2 5854   2.442   1.364   4.933
 1946SOL     OW 5855   3.417   1.511   4.427
 1946SOL    HW1 5856   3.360   1.495   4.508
 1946SOL    HW2 5857   3.358   1.521   4.347
 1947SOL     OW 5858   2.997   0.703   4.441
 1947SOL    HW1 5859   3.054   0.781   4.416
 1947SOL    HW2 5860   2.937   0.729   4.517
 1948SOL     OW 5861   3.617   0.607   3.955
 1948SOL    HW1 5862   3.605   0.594   3.856
 1948SOL    HW2 5863   3.587   0.526   4.004
 1949SOL     OW 5864   2.630   1.144   4.747
 1949SOL    HW1 5865   2.552   1.161   4.807
 1949SOL    HW2 5866   2.664   1.231   4.711
 1950SOL     OW 5867   2.547   1.012   4.389
 1950SOL    HW1 5868   2.616   0.996   4.459
 1950SOL    HW2 5869   2.474   1.069   4.427
 1951SOL     OW 5870   2.197   1.435   4.785
 1951SOL    HW1 5871   2.119   1.404   4.732
 1951SOL    HW2 5872   2.255   1.493   4.728
 1952SOL     OW 5873   3.465   0.447   4.461
 1952SOL    HW1 5874   3.391   0.493   4.411
 1952SOL    HW2 5875   3.516   0.515   4.514
 1953SOL     OW 5876   2.093   1.713   4.207
 1953SOL    HW1 5877   2.127   1.790   4.261
 1953SOL    HW2 5878   2.137   1.713   4.117
 1954SOL     OW 5879   2.092   1.434   4.262
 1954SOL    HW1 5880   2.066   1.530   4.262
 1954SOL    HW2 5881   2.021   1.380   4.307
 1955SOL     OW 5882   2.102   1.091   4.610
 1955SOL    HW1 5883   2.116   1.007   4.662
 1955SOL    HW2 5884   2.047   1.155   4.665
 1956SOL     OW 5885   2.468   0.964   3.847
 1956SOL    HW1 5886   2.475   1.048   3.793
 1956SOL    HW2 5887   2.514   0.977   3.935
 1957SOL     OW 5888   1.984   0.643   4.287
 1957SOL    HW1 5889   1.939   0.555   4.304
 1957SOL    HW2 5890   1.983   0.697   4.371
 1958SOL     OW 5891   3.704   1.767   4.083
 1958SOL    HW1 5892   3.758   1.738   4.163
 1958SOL    HW2 5893   3.734   1.857   4.054
 1959SOL     OW 5894   1.889   1.596   3.841
 1959SOL    HW1 5895   1.870   1.500   3.862
 1959SOL    HW2 5896   1.856   1.654   3.916
 1960SOL     OW 5897   3.551   0.922   4.336
 1960SOL    HW1 5898   3.646   0.893   4.344
 1960SOL    HW2 5899   3.543   0.987   4.261
 1961SOL     OW 5900   3.503   1.108   4.156
 1961SOL    HW1 5901   3.589   1.110   4.104
 1961SOL    HW2 5902   3.517   1.155   4.244
 1962SOL     OW 5903   2.475   1.365   4.450
 1962SOL    HW1 5904   2.426   1.278   4.459
 1962SOL    HW2 5905   2.452   1.408   4.363
 1963SOL     OW 5906   2.671   0.004   4.226
 1963SOL    HW1 5907   2.711   0.095   4.217
 1963SOL    HW2 5908   2.571   0.012   4.232
 1964SOL     OW 5909   2.059   0.976   4.988
 1964SOL    HW1 5910   2.148   0.931   4.974
 1964SOL    HW2 5911   1.986   0.911   4.969
 1965SOL     OW 5912   3.387   0.999   3.914
 1965SOL    HW1 5913   3.324   0.923   3.927
 1965SOL    HW2 5914   3.435   1.017   4.000
 1966SOL     OW 5915   3.328   1.417   4.677
 1966SOL    HW1 5916   3.269   1.423   4.757
 1966SOL    HW2 5917   3.313   1.329   4.631
 1967SOL     OW 5918   3.529   1.714   4.296
 1967SOL    HW1 5919   3.488   1.691   4.208
 1967SOL    HW2 5920   3.511   1.640   4.361
 1968SOL     OW 5921   2.460   0.729   3.994
 1968SOL    HW1 5922   2.484   0.798   3.926
 1968SOL    HW2 5923   2.382   0.762   4.048
 1969SOL     OW 5924   3.143   0.345   4.668
 1969SOL    HW1 5925   3.057   0.295   4.655
 1969SOL    HW2 5926   3.205   0.291   4.724
 1970SOL     OW 5927   3.438   1.662   4.031
 1970SOL    HW1 5928   3.527   1.708   4.034
 1970SOL    HW2 5929   3.417   1.638   3.936
 1971SOL     OW 5930   2.903   0.701   4.153
 1971SOL    HW1 5931   2.929   0.697   4.249
 1971SOL    HW2 5932   2.818   0.650   4.139
 1972SOL     OW 5933   1.938   0.811   4.513
 1972SOL    HW1 5934   2.037   0.799   4.522
 1972SOL    HW2 5935   1.914   0.906   4.534
 1973SOL     OW 5936   2.727   0.348   3.919
 1973SOL    HW1 5937   2.786   0.411   3.870
 1973SOL    HW2 5938   2.746   0.254   3.890
 1974SOL     OW 5939   3.224   1.144   4.269
 1974SOL    HW1 5940   3.307   1.115   4.221
 1974SOL    HW2 5941   3.175   1.211   4.213
 1975SOL     OW 5942   2.412   0.196   4.609
 1975SOL    HW1 5943   2.407   0.191   4.709
 1975SOL    HW2 5944   2.414   0.292   4.580
 1976SOL     OW 5945   2.870   1.456   4.201
 1976SOL    HW1 5946   2.824   1.528   4.149
 1976SOL    HW2 5947   2.866   1.476   4.299
 1977SOL     OW 5948   2.213   1.801   4.577
 1977SOL    HW1 5949   2.263   1.715   4.583
 1977SOL    HW2 5950   2.278   1.878   4.574
 1978SOL     OW 5951   3.657   1.066   4.597
 1978SOL    HW1 5952   3.595   1.051   4.521
 1978SOL    HW2 5953   3.605   1.077   4.682
 1979SOL     OW 5954   2.183   0.943   3.966
 1979SOL    HW1 5955   2.265   0.982   3.924
 1979SOL    HW2 5956   2.156   0.861   3.917
 1980SOL     OW 5957   3.320   0.735   4.452
 1980SOL    HW1 5958   3.315   0.670   4.527
 1980SOL    HW2 5959   3.400   0.794   4.465
 1981SOL     OW 5960   2.973   1.776   3.961
 1981SOL    HW1 5961   2.913   1.714   4.011
 1981SOL    HW2 5962   3.004   1.732   3.876
 1982SOL     OW 5963   3.494   1.377   3.805
 1982SOL    HW1 5964   3.462   1.471   3.795
 1982SOL    HW2 5965   3.418   1.314   3.793
 1983SOL     OW 5966   2.326   1.743   4.047
 1983SOL    HW1 5967   2.359   1.782   4.133
 1983SOL    HW2 5968   2.402   1.736   3.982
 1984SOL     OW 5969   3.262   0.107   4.150
 1984SOL    HW1 5970   3.238   0.070   4.060
 1984SOL    HW2 5971   3.361   0.123   4.154
 1985SOL     OW 5972   2.111   1.785   4.965
 1985SOL    HW1 5973   2.168   1.720   5.015
 1985SOL    HW2 5974   2.095   1.752   4.872
 1986SOL     OW 5975   2.802   1.698   4.628
 1986SOL    HW1 5976   2.882   1.641   4.649
 1986SOL    HW2 5977   2.753   1.658   4.551
 1987SOL     OW 5978   2.244   0.700   4.204
 1987SOL    HW1 5979   2.289   0.610   4.201
 1987SOL    HW2 5980   2.150   0.689   4.237
 1988SOL     OW 5981   2.476   0.122   3.841
 1988SOL    HW1 5982   2.574   0.100   3.848
 1988SOL    HW2 5983   2.445   0.105   3.748
 1989SOL     OW 5984   2.665   1.402   4.648
 1989SOL    HW1 5985   2.755   1.416   4.606
 1989SOL    HW2 5986   2.594   1.404   4.577
 1990SOL     OW 5987   2.784   0.503   4.623
 1990SOL    HW1 5988   2.759   0.494   4.527
 1990SOL    HW2 5989   2.832   0.421   4.654
 1991SOL     OW 5990   2.401   0.064   4.236
 1991SOL    HW1 5991   2.320   0.065   4.294
 1991SOL    HW2 5992   2.404   0.147   4.181
 1992SOL     OW 5993   3.296   1.188   3.765
 1992SOL    HW1 5994   3.328   1.112   3.822
 1992SOL    HW2 5995   3.204   1.215   3.795
 1993SOL     OW 5996   2.159   0.035   3.895
 1993SOL    HW1 5997   2.208   0.119   3.874
 1993SOL    HW2 5998   2.221  -0.030   3.940
 1994SOL     OW 5999   2.797   0.236   4.204
 1994SOL    HW1 6000   2.749   0.277   4.126
 1994SOL    HW2 6001   2.896   0.234   4.185
 1995SOL     OW 6002   3.089   1.570   4.517
 1995SOL    HW1 6003   3.110   1.644   4.452
 1995SOL    HW2 6004   3.157   1.570   4.590
 1996SOL     OW 6005   2.321   1.152   4.465
 1996SOL    HW1 6006   2.250   1.125   4.530
 1996SOL    HW2 6007   2.295   1.124   4.372
 1997SOL     OW 6008   3.133   1.797   4.315
 1997SOL    HW1 6009   3.177   1.861   4.251
 1997SOL    HW2 6010   3.083   1.849   4.385
 1998SOL     OW 6011   2.894   0.549   3.740
 1998SOL    HW1 6012   2.853   0.631   3.701
 1998SOL    HW2 6013   2.958   0.575   3.813
 1999SOL     OW 6014   2.728   0.454   4.366
 1999SOL    HW1 6015   2.696   0.526   4.304
 1999SOL    HW2 6016   2.752   0.373   4.313
 2000SOL     OW 6017   2.879   0.039   4.477
 2000SOL    HW1 6018   2.807   0.044   4.408
 2000SOL    HW2 6019   2.855  -0.030   4.546
 2001SOL     OW 6020   3.291   1.173   4.591
 2001SOL    HW1 6021   3.236   1.089   4.584
 2001SOL    HW2 6022   3.317   1.202   4.499
 2002SOL     OW 6023   3.328   0.590   4.716
 2002SOL    HW1 6024   3.298   0.495   4.723
 2002SOL    HW2 6025   3.401   0.606   4.782
 2003SOL     OW 6026   3.719   0.833   4.101
 2003SOL    HW1 6027   3.761   0.769   4.165
 2003SOL    HW2 6028   3.681   0.782   4.023
 2004SOL     OW 6029   2.350   1.385   3.898
 2004SOL    HW1 6030   2.263   1.370   3.945
 2004SOL    HW2 6031   2.333   1.411   3.803
 2005SOL     OW 6032   3.526   1.280   4.381
 2005SOL    HW1 6033   3.625   1.288   4.395
 2005SOL    HW2 6034   3.481   1.364   4.412
 2006SOL     OW 6035   3.252   0.575   3.802
 2006SOL    HW1 6036   3.198   0.554   3.883
 2006SOL    HW2 6037   3.343   0.534   3.811
 2007SOL     OW 6038   2.389   0.256   4.052
 2007SOL    HW1 6039   2.416   0.197   3.977
 2007SOL    HW2 6040   2.389   0.351   4.021
 2008SOL     OW 6041   2.973   1.195   4.824
 2008SOL    HW1 6042   2.933   1.239   4.905
 2008SOL    HW2 6043   2.932   1.232   4.741
 2009SOL     OW 6044   3.500   1.099   4.803
 2009SOL    HW1 6045   3.505   1.180   4.862
 2009SOL    HW2 6046   3.414   1.101   4.752
 2010SOL     OW 6047   2.567   1.050   4.092
 2010SOL    HW1 6048   2.553   1.057   4.191
 2010SOL    HW2 6049   2.651   0.999   4.074
 2011SOL     OW 6050   2.272   0.813   4.975
 2011SOL    HW1 6051   2.358   0.825   5.025
 2011SOL    HW2 6052   2.230   0.726   5.002
 2012SOL     OW 6053   2.229   1.100   4.225
 2012SOL    HW1 6054   2.222   1.183   4.169
 2012SOL    HW2 6055   2.233   1.020   4.165
 2013SOL     OW 6056   2.428   0.537   4.589
 2013SOL    HW1 6057   2.440   0.603   4.515
 2013SOL    HW2 6058   2.474   0.571   4.672
 2014SOL     OW 6059   3.114   1.348   4.112
 2014SOL    HW1 6060   3.164   1.425   4.152
 2014SOL    HW2 6061   3.019   1.350   4.144
 2015SOL     OW 6062   3.134   1.445   4.866
 2015SOL    HW1 6063   3.181   1.458   4.953
 2015SOL    HW2 6064   3.068   1.371   4.875
 2016SOL     OW 6065   3.444   0.639   4.196
 2016SOL    HW1 6066   3.413   0.700   4.269
 2016SOL    HW2 6067   3.494   0.691   4.127
 2017SOL     OW 6068   2.435   0.870   4.753
 2017SOL    HW1 6069   2.479   0.959   4.744
 2017SOL    HW2 6070   2.372   0.870   4.830
 2018SOL     OW 6071   3.222   0.862   4.769
 2018SOL    HW1 6072   3.147   0.862   4.703
 2018SOL    HW2 6073   3.259   0.770   4.778
 2019SOL     OW 6074   3.071   0.525   3.999
 2019SOL    HW1 6075   3.084   0.441   4.053
 2019SOL    HW2 6076   3.042   0.599   4.059
 2020SOL     OW 6077   2.169   0.213   4.955
 2020SOL    HW1 6078   2.146   0.250   5.045
 2020SOL    HW2 6079   2.139   0.118   4.949
 2021SOL     OW 6080   2.594   0.634   4.788
 2021SOL    HW1 6081   2.653   0.608   4.712
 2021SOL    HW2 6082   2.566   0.730   4.777
 2022SOL     OW 6083   2.169   0.063   4.342
 2022SOL    HW1 6084   2.158   0.157   4.375
 2022SOL    HW2 6085   2.164   0.000   4.419
 2023SOL     OW 6086   3.484   0.367   4.098
 2023SOL    HW1 6087   3.486   0.291   4.162
 2023SOL    HW2 6088   3.436   0.444   4.138
 2024SOL     OW 6089   2.885   0.766   4.690
 2024SOL    HW1 6090   2.900   0.787   4.786
 2024SOL    HW2 6091   2.855   0.671   4.681
 2025SOL     OW 6092   3.402   0.274   3.849
 2025SOL    HW1 6093   3.341   0.199   3.872
 2025SOL    HW2 6094   3.424   0.326   3.932
 2026SOL     OW 6095   3.165   0.838   3.766
 2026SOL    HW1 6096   3.199   0.745   3.781
 2026SOL    HW2 6097   3.183   0.865   3.671
 2027SOL     OW 6098   2.930   1.333   4.573
 2027SOL    HW1 6099   2.937   1.249   4.518
 2027SOL    HW2 6100   2.992   1.402   4.537
 2028SOL     OW 6101   2.181   0.810   4.673
 2028SOL    HW1 6102   2.274   0.846   4.678
 2028SOL    HW2 6103   2.175   0.725   4.725
 2029SOL     OW 6104   2.201   0.509   4.730
 2029SOL    HW1 6105   2.149   0.426   4.713
 2029SOL    HW2 6106   2.278   0.514   4.666
 2030SOL     OW 6107   3.022   0.207   5.201
 2030SOL    HW1 6108   3.022   0.271   5.278
 2030SOL    HW2 6109   3.050   0.255   5.118
 2031SOL     OW 6110   1.870   1.326   3.924
 2031SOL    HW1 6111   1.777   1.347   3.893
 2031SOL    HW2 6112   1.880   1.227   3.937
 2032SOL     OW 6113   1.950   1.801   4.651
 2032SOL    HW1 6114   1.908   1.715   4.624
 2032SOL    HW2 6115   2.044   1.804   4.617
 2033SOL     OW 6116   2.366   1.568   4.634
 2033SOL    HW1 6117   2.432   1.642   4.643
 2033SOL    HW2 6118   2.410   1.489   4.592
 2034SOL     OW 6119   2.864   0.796   4.962
 2034SOL    HW1 6120   2.905   0.764   5.048
 2034SOL    HW2 6121   2.768   0.769   4.959
 2035SOL     OW 6122   1.902   0.544   4.838
 2035SOL    HW1 6123   1.987   0.511   4.797
 2035SOL    HW2 6124   1.915   0.559   4.936
 2036SOL     OW 6125   2.677   0.572   4.049
 2036SOL    HW1 6126   2.684   0.483   4.003
 2036SOL    HW2 6127   2.583   0.606   4.041
 2037SOL     OW 6128   3.519   0.604   4.930
 2037SOL    HW1 6129   3.481   0.535   4.992
 2037SOL    HW2 6130   3.601   0.568   4.886
 2038SOL     OW 6131   2.533   0.464   4.993
 2038SOL    HW1 6132   2.499   0.375   4.963
 2038SOL    HW2 6133   2.559   0.518   4.913
 2039SOL     OW 6134   2.335   0.500   3.915
 2039SOL    HW1 6135   2.396   0.580   3.919
 2039SOL    HW2 6136   2.240   0.531   3.922
 2040SOL     OW 6137   2.021   1.137   5.190
 2040SOL    HW1 6138   2.043   1.076   5.266
 2040SOL    HW2 6139   2.031   1.088   5.104
 2041SOL     OW 6140   3.164   0.855   4.033
 2041SOL    HW1 6141   3.078   0.824   4.075
 2041SOL    HW2 6142   3.160   0.841   3.934
 2042SOL     OW 6143   3.621   1.747   4.878
 2042SOL    HW1 6144   3.682   1.777   4.805
 2042SOL    HW2 6145   3.583   1.658   4.856
 2043SOL     OW 6146   1.945   1.258   4.746
 2043SOL    HW1 6147   1.940   1.257   4.846
 2043SOL    HW2 6148   1.862   1.217   4.708
 2044SOL     OW 6149   3.588   0.135   4.247
 2044SOL    HW1 6150   3.661   0.118   4.180
 2044SOL    HW2 6151   3.557   0.048   4.285
 2045SOL     OW 6152   3.250   1.573   4.201
 2045SOL    HW1 6153   3.317   1.585   4.127
 2045SOL    HW2 6154   3.210   1.662   4.224
 2046SOL     OW 6155   3.142   0.927   4.396
 2046SOL    HW1 6156   3.202   0.846   4.398
 2046SOL    HW2 6157   3.182   0.996   4.336
 2047SOL     OW 6158   2.534   1.616   3.878
 2047SOL    HW1 6159   2.543   1.626   3.779
 2047SOL    HW2 6160   2.494   1.527   3.899
 2048SOL     OW 6161   3.703   0.175   4.687
 2048SOL    HW1 6162   3.742   0.090   4.651
 2048SOL    HW2 6163   3.605   0.177   4.668
 2049SOL     OW 6164   2.125   0.326   4.444
 2049SOL    HW1 6165   2.046   0.377   4.410
 2049SOL    HW2 6166   2.116   0.311   4.542
 2050SOL     OW 6167   3.056   1.612   3.755
 2050SOL    HW1 6168   3.062   1.519   3.792
 2050SOL    HW2 6169   2.997   1.612   3.675
 2051SOL     OW 6170   2.684   1.002   5.096
 2051SOL    HW1 6171   2.724   1.001   5.004
 2051SOL    HW2 6172   2.694   1.094   5.136
 2052SOL     OW 6173   2.778   0.910   4.015
 2052SOL    HW1 6174   2.841   0.948   3.947
 2052SOL    HW2 6175   2.818   0.827   4.054
 2053SOL     OW 6176   3.366   1.607   3.768
 2053SOL    HW1 6177   3.274   1.644   3.775
 2053SOL    HW2 6178   3.404   1.627   3.678
 2054SOL     OW 6179   2.901   1.098   4.420
 2054SOL    HW1 6180   2.831   1.051   4.474
 2054SOL    HW2 6181   2.960   1.030   4.377
 2055SOL     OW 6182   2.876   0.236   4.695
 2055SOL    HW1 6183   2.868   0.200   4.602
 2055SOL    HW2 6184   2.874   0.160   4.760
 2056SOL     OW 6185   2.452   1.487   4.215
 2056SOL    HW1 6186   2.494   1.429   4.145
 2056SOL    HW2 6187   2.408   1.566   4.171
 2057SOL     OW 6188   3.571   0.385   5.105
 2057SOL    HW1 6189   3.644   0.454   5.109
 2057SOL    HW2 6190   3.599   0.310   5.046
 2058SOL     OW 6191   2.117   1.348   4.014
 2058SOL    HW1 6192   2.021   1.349   3.987
 2058SOL    HW2 6193   2.129   1.401   4.098
 2059SOL     OW 6194   1.937   0.345   3.757
 2059SOL    HW1 6195   1.845   0.317   3.728
 2059SOL    HW2 6196   1.968   0.422   3.701
 2060SOL     OW 6197   1.934   0.166   4.042
 2060SOL    HW1 6198   1.917   0.249   3.988
 2060SOL    HW2 6199   2.024   0.129   4.020
 2061SOL     OW 6200   3.045   1.335   3.843
 2061SOL    HW1 6201   2.946   1.324   3.845
 2061SOL    HW2 6202   3.079   1.350   3.936
 2062SOL     OW 6203   3.355   1.767   4.683
 2062SOL    HW1 6204   3.388   1.831   4.614
 2062SOL    HW2 6205   3.421   1.761   4.758
 2063SOL     OW 6206   3.536   0.883   4.978
 2063SOL    HW1 6207   3.509   0.794   4.941
 2063SOL    HW2 6208   3.537   0.951   4.905
 2064SOL     OW 6209   3.087   0.325   4.173
 2064SOL    HW1 6210   3.152   0.251   4.162
 2064SOL    HW2 6211   3.107   0.375   4.257
 2065SOL     OW 6212   2.456   0.745   4.376
 2065SOL    HW1 6213   2.506   0.830   4.357
 2065SOL    HW2 6214   2.368   0.747   4.328
 2066SOL     OW 6215   3.592   0.934   5.241
 2066SOL    HW1 6216   3.630   1.025   5.256
 2066SOL    HW2 6217   3.584   0.917   5.142
 2067SOL     OW 6218   2.721   1.374   3.740
 2067SOL    HW1 6219   2.675   1.389   3.828
 2067SOL    HW2 6220   2.765   1.459   3.710
 2068SOL     OW 6221   2.523   1.790   4.677
 2068SOL    HW1 6222   2.477   1.878   4.664
 2068SOL    HW2 6223   2.622   1.802   4.670
 2069SOL     OW 6224   2.721   0.956   4.585
 2069SOL    HW1 6225   2.775   0.887   4.633
 2069SOL    HW2 6226   2.689   1.025   4.651
 2070SOL     OW 6227   2.945   0.984   3.811
 2070SOL    HW1 6228   2.922   1.037   3.729
 2070SOL    HW2 6229   3.026   0.928   3.792
 2071SOL     OW 6230   3.723   1.569   4.575
 2071SOL    HW1 6231   3.652   1.557   4.505
 2071SOL    HW2 6232   3.724   1.490   4.635
 2072SOL     OW 6233   1.941   1.240   4.377
 2072SOL    HW1 6234   1.940   1.193   4.465
 2072SOL    HW2 6235   2.023   1.212   4.326
 2073SOL     OW 6236   3.686   0.192   4.951
 2073SOL    HW1 6237   3.682   0.102   4.995
 2073SOL    HW2 6238   3.689   0.181   4.852
 2074SOL     OW 6239   2.290   0.424   4.244
 2074SOL    HW1 6240   2.320   0.352   4.182
 2074SOL    HW2 6241   2.251   0.384   4.327
 2075SOL     OW 6242   3.567   1.487   4.828
 2075SOL    HW1 6243   3.474   1.462   4.801
 2075SOL    HW2 6244   3.593   1.437   4.910
 2076SOL     OW 6245   2.674   1.586   4.411
 2076SOL    HW1 6246   2.706   1.596   4.317
 2076SOL    HW2 6247   2.595   1.524   4.413
 2077SOL     OW 6248   3.286   0.214   4.836
 2077SOL    HW1 6249   3.338   0.149   4.891
 2077SOL    HW2 6250   3.237   0.277   4.897
 2078SOL     OW 6251   2.863   0.034   4.878
 2078SOL    HW1 6252   2.800  -0.038   4.847
 2078SOL    HW2 6253   2.956  -0.002   4.878
 2079SOL     OW 6254   2.632   1.330   4.025
 2079SOL    HW1 6255   2.586   1.243   4.042
 2079SOL    HW2 6256   2.723   1.327   4.066
 2080SOL     OW 6257   3.214   0.052   3.892
 2080SOL    HW1 6258   3.249   0.011   3.808
 2080SOL    HW2 6259   3.124   0.014   3.912
 2081SOL     OW 6260   3.162   0.453   4.415
 2081SOL    HW1 6261   3.103   0.533   4.419
 2081SOL    HW2 6262   3.177   0.418   4.508
 2082SOL     OW 6263   3.455   0.221   4.606
 2082SOL    HW1 6264   3.371   0.220   4.660
 2082SOL    HW2 6265   3.457   0.304   4.550
 2083SOL     OW 6266   1.901   1.077   4.024
 2083SOL    HW1 6267   2.000   1.066   4.015
 2083SOL    HW2 6268   1.861   0.991   4.056
 2084SOL     OW 6269   2.737   1.646   4.061
 2084SOL    HW1 6270   2.660   1.611   4.007
 2084SOL    HW2 6271   2.705   1.717   4.123
 2085SOL     OW 6272   2.092   2.490   0.113
 2085SOL    HW1 6273   1.999   2.488   0.150
 2085SOL    HW2 6274   2.093   2.451   0.021
 2086SOL     OW 6275   2.087   2.137   0.996
 2086SOL    HW1 6276   2.122   2.120   1.088
 2086SOL    HW2 6277   1.999   2.092   0.984
 2087SOL     OW 6278   1.881   2.230   0.647
 2087SOL    HW1 6279   1.799   2.273   0.686
 2087SOL    HW2 6280   1.853   2.157   0.584
 2088SOL     OW 6281   2.431   3.137   1.165
 2088SOL    HW1 6282   2.338   3.130   1.128
 2088SOL    HW2 6283   2.442   3.226   1.209
 2089SOL     OW 6284   3.417   3.373   0.703
 2089SOL    HW1 6285   3.360   3.357   0.784
 2089SOL    HW2 6286   3.358   3.383   0.623
 2090SOL     OW 6287   2.997   2.565   0.717
 2090SOL    HW1 6288   3.054   2.643   0.692
 2090SOL    HW2 6289   2.937   2.591   0.793
 2091SOL     OW 6290   3.617   2.469   0.231
 2091SOL    HW1 6291   3.605   2.456   0.132
 2091SOL    HW2 6292   3.587   2.388   0.280
 2092SOL     OW 6293   2.630   3.006   1.023
 2092SOL    HW1 6294   2.552   3.023   1.083
 2092SOL    HW2 6295   2.664   3.093   0.987
 2093SOL     OW 6296   2.712   2.660   1.823
 2093SOL    HW1 6297   2.708   2.736   1.888
 2093SOL    HW2 6298   2.734   2.696   1.732
 2094SOL     OW 6299   2.547   2.874   0.665
 2094SOL    HW1 6300   2.616   2.858   0.735
 2094SOL    HW2 6301   2.474   2.931   0.703
 2095SOL     OW 6302   2.548   3.023   1.803
 2095SOL    HW1 6303   2.608   3.102   1.817
 2095SOL    HW2 6304   2.462   3.054   1.762
 2096SOL     OW 6305   2.197   3.297   1.061
 2096SOL    HW1 6306   2.119   3.266   1.008
 2096SOL    HW2 6307   2.255   3.355   1.004
 2097SOL     OW 6308   3.322   3.367   1.339
 2097SOL    HW1 6309   3.346   3.461   1.365
 2097SOL    HW2 6310   3.306   3.313   1.421
 2098SOL     OW 6311   2.300   2.254   1.499
 2098SOL    HW1 6312   2.382   2.198   1.508
 2098SOL    HW2 6313   2.219   2.196   1.503
 2099SOL     OW 6314   3.465   2.309   0.737
 2099SOL    HW1 6315   3.391   2.355   0.687
 2099SOL    HW2 6316   3.516   2.377   0.790
 2100SOL     OW 6317   2.093   3.575   0.483
 2100SOL    HW1 6318   2.127   3.652   0.537
 2100SOL    HW2 6319   2.137   3.575   0.393
 2101SOL     OW 6320   2.989   3.203   1.690
 2101SOL    HW1 6321   3.036   3.203   1.778
 2101SOL    HW2 6322   2.941   3.116   1.679
 2102SOL     OW 6323   2.092   3.296   0.538
 2102SOL    HW1 6324   2.066   3.392   0.538
 2102SOL    HW2 6325   2.021   3.242   0.583
 2103SOL     OW 6326   2.102   2.953   0.886
 2103SOL    HW1 6327   2.116   2.869   0.938
 2103SOL    HW2 6328   2.047   3.017   0.941
 2104SOL     OW 6329   2.482   3.648   1.439
 2104SOL    HW1 6330   2.390   3.631   1.474
 2104SOL    HW2 6331   2.510   3.740   1.465
 2105SOL     OW 6332   2.468   2.826   0.123
 2105SOL    HW1 6333   2.475   2.910   0.069
 2105SOL    HW2 6334   2.514   2.839   0.211
 2106SOL     OW 6335   3.456   1.976   1.480
 2106SOL    HW1 6336   3.438   2.043   1.408
 2106SOL    HW2 6337   3.453   2.022   1.569
 2107SOL     OW 6338   1.984   2.505   0.563
 2107SOL    HW1 6339   1.939   2.417   0.580
 2107SOL    HW2 6340   1.983   2.559   0.647
 2108SOL     OW 6341   3.704   3.629   0.359
 2108SOL    HW1 6342   3.758   3.600   0.439
 2108SOL    HW2 6343   3.734   3.719   0.330
 2109SOL     OW 6344   1.889   3.458   0.117
 2109SOL    HW1 6345   1.870   3.362   0.138
 2109SOL    HW2 6346   1.856   3.516   0.192
 2110SOL     OW 6347   3.551   2.784   0.612
 2110SOL    HW1 6348   3.646   2.755   0.620
 2110SOL    HW2 6349   3.543   2.849   0.537
 2111SOL     OW 6350   3.503   2.970   0.432
 2111SOL    HW1 6351   3.589   2.972   0.380
 2111SOL    HW2 6352   3.517   3.017   0.520
 2112SOL     OW 6353   1.975   2.599   1.597
 2112SOL    HW1 6354   2.063   2.586   1.642
 2112SOL    HW2 6355   1.962   2.696   1.575
 2113SOL     OW 6356   2.475   3.227   0.726
 2113SOL    HW1 6357   2.426   3.140   0.735
 2113SOL    HW2 6358   2.452   3.270   0.639
 2114SOL     OW 6359   3.155   3.090   1.423
 2114SOL    HW1 6360   3.192   3.017   1.365
 2114SOL    HW2 6361   3.207   3.095   1.508
 2115SOL     OW 6362   2.671   1.866   0.502
 2115SOL    HW1 6363   2.711   1.957   0.493
 2115SOL    HW2 6364   2.571   1.874   0.508
 2116SOL     OW 6365   2.059   2.838   1.264
 2116SOL    HW1 6366   2.148   2.793   1.250
 2116SOL    HW2 6367   1.986   2.773   1.245
 2117SOL     OW 6368   3.387   2.861   0.190
 2117SOL    HW1 6369   3.324   2.785   0.203
 2117SOL    HW2 6370   3.435   2.879   0.276
 2118SOL     OW 6371   3.049   3.654   1.616
 2118SOL    HW1 6372   3.073   3.714   1.540
 2118SOL    HW2 6373   3.056   3.559   1.586
 2119SOL     OW 6374   2.179   2.113   1.801
 2119SOL    HW1 6375   2.250   2.184   1.807
 2119SOL    HW2 6376   2.091   2.152   1.829
 2120SOL     OW 6377   3.328   3.279   0.953
 2120SOL    HW1 6378   3.269   3.285   1.033
 2120SOL    HW2 6379   3.313   3.191   0.907
 2121SOL     OW 6380   3.529   3.576   0.572
 2121SOL    HW1 6381   3.488   3.553   0.484
 2121SOL    HW2 6382   3.511   3.502   0.637
 2122SOL     OW 6383   2.460   2.591   0.270
 2122SOL    HW1 6384   2.484   2.660   0.202
 2122SOL    HW2 6385   2.382   2.624   0.324
 2123SOL     OW 6386   3.143   2.207   0.944
 2123SOL    HW1 6387   3.057   2.157   0.931
 2123SOL    HW2 6388   3.205   2.153   1.000
 2124SOL     OW 6389   3.438   3.524   0.307
 2124SOL    HW1 6390   3.527   3.570   0.310
 2124SOL    HW2 6391   3.417   3.500   0.212
 2125SOL     OW 6392   2.669   2.467   1.465
 2125SOL    HW1 6393   2.622   2.464   1.554
 2125SOL    HW2 6394   2.618   2.412   1.399
 2126SOL     OW 6395   3.256   2.331   1.674
 2126SOL    HW1 6396   3.236   2.374   1.762
 2126SOL    HW2 6397   3.334   2.269   1.683
 2127SOL     OW 6398   2.835   2.752   1.572
 2127SOL    HW1 6399   2.881   2.668   1.543
 2127SOL    HW2 6400   2.779   2.786   1.497
 2128SOL     OW 6401   2.853   2.272   1.242
 2128SOL    HW1 6402   2.776   2.306   1.296
 2128SOL    HW2 6403   2.819   2.221   1.163
 2129SOL     OW 6404   2.903   2.563   0.429
 2129SOL    HW1 6405   2.929   2.559   0.525
 2129SOL    HW2 6406   2.818   2.512   0.415
 2130SOL     OW 6407   1.938   2.673   0.789
 2130SOL    HW1 6408   2.037   2.661   0.798
 2130SOL    HW2 6409   1.914   2.768   0.810
 2131SOL     OW 6410   1.992   3.683   1.571
 2131SOL    HW1 6411   1.982   3.668   1.670
 2131SOL    HW2 6412   1.906   3.719   1.535
 2132SOL     OW 6413   2.727   2.210   0.195
 2132SOL    HW1 6414   2.786   2.273   0.146
 2132SOL    HW2 6415   2.746   2.116   0.166
 2133SOL     OW 6416   3.581   2.447   1.831
 2133SOL    HW1 6417   3.555   2.536   1.795
 2133SOL    HW2 6418   3.579   2.379   1.758
 2134SOL     OW 6419   3.224   3.006   0.545
 2134SOL    HW1 6420   3.307   2.977   0.497
 2134SOL    HW2 6421   3.175   3.073   0.489
 2135SOL     OW 6422   2.412   2.058   0.885
 2135SOL    HW1 6423   2.407   2.053   0.985
 2135SOL    HW2 6424   2.414   2.154   0.856
 2136SOL     OW 6425   2.870   3.318   0.477
 2136SOL    HW1 6426   2.824   3.390   0.425
 2136SOL    HW2 6427   2.866   3.338   0.575
 2137SOL     OW 6428   2.213   3.663   0.853
 2137SOL    HW1 6429   2.263   3.577   0.859
 2137SOL    HW2 6430   2.278   3.740   0.850
 2138SOL     OW 6431   3.657   2.928   0.873
 2138SOL    HW1 6432   3.595   2.913   0.797
 2138SOL    HW2 6433   3.605   2.939   0.958
 2139SOL     OW 6434   3.089   3.412   1.506
 2139SOL    HW1 6435   3.095   3.335   1.570
 2139SOL    HW2 6436   3.037   3.386   1.426
 2140SOL     OW 6437   2.183   2.805   0.242
 2140SOL    HW1 6438   2.265   2.844   0.200
 2140SOL    HW2 6439   2.156   2.723   0.193
 2141SOL     OW 6440   3.320   2.597   0.728
 2141SOL    HW1 6441   3.315   2.532   0.803
 2141SOL    HW2 6442   3.400   2.656   0.741
 2142SOL     OW 6443   2.323   3.128   1.727
 2142SOL    HW1 6444   2.273   3.129   1.641
 2142SOL    HW2 6445   2.260   3.110   1.803
 2143SOL     OW 6446   2.973   3.638   0.237
 2143SOL    HW1 6447   2.913   3.576   0.287
 2143SOL    HW2 6448   3.004   3.594   0.152
 2144SOL     OW 6449   2.064   2.147   1.498
 2144SOL    HW1 6450   1.984   2.207   1.485
 2144SOL    HW2 6451   2.054   2.098   1.584
 2145SOL     OW 6452   3.494   3.239   0.081
 2145SOL    HW1 6453   3.462   3.333   0.071
 2145SOL    HW2 6454   3.418   3.176   0.069
 2146SOL     OW 6455   2.326   3.605   0.323
 2146SOL    HW1 6456   2.359   3.644   0.409
 2146SOL    HW2 6457   2.402   3.598   0.258
 2147SOL     OW 6458   3.262   1.969   0.426
 2147SOL    HW1 6459   3.238   1.932   0.336
 2147SOL    HW2 6460   3.361   1.985   0.430
 2148SOL     OW 6461   2.111   3.647   1.241
 2148SOL    HW1 6462   2.168   3.582   1.291
 2148SOL    HW2 6463   2.095   3.614   1.148
 2149SOL     OW 6464   2.802   3.560   0.904
 2149SOL    HW1 6465   2.882   3.503   0.925
 2149SOL    HW2 6466   2.753   3.520   0.827
 2150SOL     OW 6467   2.244   2.562   0.480
 2150SOL    HW1 6468   2.289   2.472   0.477
 2150SOL    HW2 6469   2.150   2.551   0.513
 2151SOL     OW 6470   3.409   2.084   1.729
 2151SOL    HW1 6471   3.404   2.121   1.821
 2151SOL    HW2 6472   3.337   2.015   1.717
 2152SOL     OW 6473   2.476   1.984   0.117
 2152SOL    HW1 6474   2.574   1.962   0.124
 2152SOL    HW2 6475   2.445   1.967   0.024
 2153SOL     OW 6476   2.643   2.126   1.749
 2153SOL    HW1 6477   2.710   2.065   1.792
 2153SOL    HW2 6478   2.570   2.145   1.814
 2154SOL     OW 6479   2.750   3.376   1.195
 2154SOL    HW1 6480   2.727   3.351   1.101
 2154SOL    HW2 6481   2.811   3.307   1.234
 2155SOL     OW 6482   3.213   2.452   1.433
 2155SOL    HW1 6483   3.241   2.409   1.518
 2155SOL    HW2 6484   3.238   2.548   1.434
 2156SOL     OW 6485   2.665   3.264   0.924
 2156SOL    HW1 6486   2.755   3.278   0.882
 2156SOL    HW2 6487   2.594   3.266   0.853
 2157SOL     OW 6488   2.784   2.365   0.899
 2157SOL    HW1 6489   2.759   2.356   0.803
 2157SOL    HW2 6490   2.832   2.283   0.930
 2158SOL     OW 6491   2.401   1.926   0.512
 2158SOL    HW1 6492   2.320   1.927   0.570
 2158SOL    HW2 6493   2.404   2.009   0.457
 2159SOL     OW 6494   3.296   3.050   0.041
 2159SOL    HW1 6495   3.328   2.974   0.098
 2159SOL    HW2 6496   3.204   3.077   0.071
 2160SOL     OW 6497   2.159   1.897   0.171
 2160SOL    HW1 6498   2.208   1.981   0.150
 2160SOL    HW2 6499   2.221   1.832   0.216
 2161SOL     OW 6500   2.797   2.098   0.480
 2161SOL    HW1 6501   2.749   2.139   0.402
 2161SOL    HW2 6502   2.896   2.096   0.461
 2162SOL     OW 6503   2.938   2.545   1.464
 2162SOL    HW1 6504   2.858   2.484   1.467
 2162SOL    HW2 6505   3.019   2.492   1.440
 2163SOL     OW 6506   3.089   3.432   0.793
 2163SOL    HW1 6507   3.110   3.506   0.728
 2163SOL    HW2 6508   3.157   3.432   0.866
 2164SOL     OW 6509   2.321   3.014   0.741
 2164SOL    HW1 6510   2.250   2.987   0.806
 2164SOL    HW2 6511   2.295   2.986   0.648
 2165SOL     OW 6512   3.133   3.659   0.591
 2165SOL    HW1 6513   3.177   3.723   0.527
 2165SOL    HW2 6514   3.083   3.711   0.661
 2166SOL     OW 6515   2.894   2.411   0.016
 2166SOL    HW1 6516   2.853   2.493  -0.023
 2166SOL    HW2 6517   2.958   2.437   0.089
 2167SOL     OW 6518   1.940   2.418   1.386
 2167SOL    HW1 6519   2.032   2.417   1.345
 2167SOL    HW2 6520   1.934   2.492   1.453
 2168SOL     OW 6521   2.423   2.084   1.147
 2168SOL    HW1 6522   2.461   2.000   1.184
 2168SOL    HW2 6523   2.335   2.103   1.191
 2169SOL     OW 6524   2.728   2.316   0.642
 2169SOL    HW1 6525   2.696   2.388   0.580
 2169SOL    HW2 6526   2.752   2.235   0.589
 2170SOL     OW 6527   2.879   1.901   0.753
 2170SOL    HW1 6528   2.807   1.906   0.684
 2170SOL    HW2 6529   2.855   1.832   0.822
 2171SOL     OW 6530   3.291   3.035   0.867
 2171SOL    HW1 6531   3.236   2.951   0.860
 2171SOL    HW2 6532   3.317   3.064   0.775
 2172SOL     OW 6533   3.328   2.452   0.992
 2172SOL    HW1 6534   3.298   2.357   0.999
 2172SOL    HW2 6535   3.401   2.468   1.058
 2173SOL     OW 6536   3.719   2.695   0.377
 2173SOL    HW1 6537   3.761   2.631   0.441
 2173SOL    HW2 6538   3.681   2.644   0.299
 2174SOL     OW 6539   2.350   3.247   0.174
 2174SOL    HW1 6540   2.263   3.232   0.221
 2174SOL    HW2 6541   2.333   3.273   0.079
 2175SOL     OW 6542   3.526   3.142   0.657
 2175SOL    HW1 6543   3.625   3.150   0.671
 2175SOL    HW2 6544   3.481   3.226   0.688
 2176SOL     OW 6545   3.252   2.437   0.078
 2176SOL    HW1 6546   3.198   2.416   0.159
 2176SOL    HW2 6547   3.343   2.396   0.087
 2177SOL     OW 6548   2.389   2.118   0.328
 2177SOL    HW1 6549   2.416   2.059   0.253
 2177SOL    HW2 6550   2.389   2.213   0.297
 2178SOL     OW 6551   3.616   3.085   1.588
 2178SOL    HW1 6552   3.707   3.046   1.575
 2178SOL    HW2 6553   3.624   3.181   1.612
 2179SOL     OW 6554   2.926   3.209   1.340
 2179SOL    HW1 6555   2.846   3.186   1.395
 2179SOL    HW2 6556   3.009   3.183   1.389
 2180SOL     OW 6557   3.454   3.491   1.625
 2180SOL    HW1 6558   3.481   3.525   1.535
 2180SOL    HW2 6559   3.533   3.453   1.671
 2181SOL     OW 6560   2.973   3.057   1.100
 2181SOL    HW1 6561   2.933   3.101   1.181
 2181SOL    HW2 6562   2.932   3.094   1.017
 2182SOL     OW 6563   3.500   2.961   1.079
 2182SOL    HW1 6564   3.505   3.042   1.138
 2182SOL    HW2 6565   3.414   2.963   1.028
 2183SOL     OW 6566   2.777   1.951   1.402
 2183SOL    HW1 6567   2.802   1.931   1.307
 2183SOL    HW2 6568   2.849   2.007   1.444
 2184SOL     OW 6569   2.842   2.978   1.719
 2184SOL    HW1 6570   2.743   2.984   1.729
 2184SOL    HW2 6571   2.865   2.898   1.663
 2185SOL     OW 6572   2.567   2.912   0.368
 2185SOL    HW1 6573   2.553   2.919   0.467
 2185SOL    HW2 6574   2.651   2.861   0.350
 2186SOL     OW 6575   2.272   2.675   1.251
 2186SOL    HW1 6576   2.358   2.687   1.301
 2186SOL    HW2 6577   2.230   2.588   1.278
 2187SOL     OW 6578   3.136   2.248   1.262
 2187SOL    HW1 6579   3.157   2.322   1.326
 2187SOL    HW2 6580   3.047   2.265   1.219
 2188SOL     OW 6581   1.926   3.426   1.331
 2188SOL    HW1 6582   1.880   3.508   1.297
 2188SOL    HW2 6583   2.024   3.445   1.340
 2189SOL     OW 6584   2.229   2.962   0.501
 2189SOL    HW1 6585   2.222   3.045   0.445
 2189SOL    HW2 6586   2.233   2.882   0.441
 2190SOL     OW 6587   2.428   2.399   0.865
 2190SOL    HW1 6588   2.440   2.465   0.791
 2190SOL    HW2 6589   2.474   2.433   0.948
 2191SOL     OW 6590   3.114   3.210   0.388
 2191SOL    HW1 6591   3.164   3.287   0.428
 2191SOL    HW2 6592   3.019   3.212   0.420
 2192SOL     OW 6593   3.134   3.307   1.142
 2192SOL    HW1 6594   3.181   3.320   1.229
 2192SOL    HW2 6595   3.068   3.233   1.151
 2193SOL     OW 6596   3.444   2.501   0.472
 2193SOL    HW1 6597   3.413   2.562   0.545
 2193SOL    HW2 6598   3.494   2.553   0.403
 2194SOL     OW 6599   2.216   3.372   1.329
 2194SOL    HW1 6600   2.195   3.328   1.242
 2194SOL    HW2 6601   2.313   3.398   1.332
 2195SOL     OW 6602   2.264   2.613   1.598
 2195SOL    HW1 6603   2.332   2.668   1.551
 2195SOL    HW2 6604   2.304   2.525   1.625
 2196SOL     OW 6605   3.449   2.641   1.670
 2196SOL    HW1 6606   3.357   2.679   1.665
 2196SOL    HW2 6607   3.509   2.688   1.605
 2197SOL     OW 6608   2.875   1.967   1.770
 2197SOL    HW1 6609   2.881   2.052   1.718
 2197SOL    HW2 6610   2.907   1.891   1.713
 2198SOL     OW 6611   2.366   1.912   1.740
 2198SOL    HW1 6612   2.324   1.855   1.670
 2198SOL    HW2 6613   2.300   1.981   1.772
 2199SOL     OW 6614   2.435   2.732   1.029
 2199SOL    HW1 6615   2.479   2.821   1.020
 2199SOL    HW2 6616   2.372   2.732   1.106
 2200SOL     OW 6617   3.222   2.724   1.045
 2200SOL    HW1 6618   3.147   2.724   0.979
 2200SOL    HW2 6619   3.259   2.632   1.054
 2201SOL     OW 6620   3.071   2.387   0.275
 2201SOL    HW1 6621   3.084   2.303   0.329
 2201SOL    HW2 6622   3.042   2.461   0.335
 2202SOL     OW 6623   2.169   2.075   1.231
 2202SOL    HW1 6624   2.146   2.112   1.321
 2202SOL    HW2 6625   2.139   1.980   1.225
 2203SOL     OW 6626   1.899   3.172   1.282
 2203SOL    HW1 6627   1.952   3.123   1.350
 2203SOL    HW2 6628   1.921   3.270   1.287
 2204SOL     OW 6629   2.594   2.496   1.064
 2204SOL    HW1 6630   2.653   2.470   0.988
 2204SOL    HW2 6631   2.566   2.592   1.053
 2205SOL     OW 6632   3.590   2.797   1.854
 2205SOL    HW1 6633   3.544   2.790   1.765
 2205SOL    HW2 6634   3.528   2.841   1.920
 2206SOL     OW 6635   2.169   1.925   0.618
 2206SOL    HW1 6636   2.158   2.019   0.651
 2206SOL    HW2 6637   2.164   1.862   0.695
 2207SOL     OW 6638   3.484   2.229   0.374
 2207SOL    HW1 6639   3.486   2.153   0.438
 2207SOL    HW2 6640   3.436   2.306   0.414
 2208SOL     OW 6641   2.885   2.628   0.966
 2208SOL    HW1 6642   2.900   2.649   1.062
 2208SOL    HW2 6643   2.855   2.533   0.957
 2209SOL     OW 6644   2.842   3.435   1.700
 2209SOL    HW1 6645   2.822   3.479   1.612
 2209SOL    HW2 6646   2.881   3.344   1.684
 2210SOL     OW 6647   3.721   3.380   1.605
 2210SOL    HW1 6648   3.735   3.407   1.510
 2210SOL    HW2 6649   3.804   3.402   1.658
 2211SOL     OW 6650   2.212   2.760   1.804
 2211SOL    HW1 6651   2.288   2.804   1.852
 2211SOL    HW2 6652   2.247   2.713   1.722
 2212SOL     OW 6653   3.402   2.136   0.125
 2212SOL    HW1 6654   3.341   2.061   0.148
 2212SOL    HW2 6655   3.424   2.188   0.208
 2213SOL     OW 6656   3.165   2.700   0.042
 2213SOL    HW1 6657   3.199   2.607   0.057
 2213SOL    HW2 6658   3.183   2.727  -0.053
 2214SOL     OW 6659   2.930   3.195   0.849
 2214SOL    HW1 6660   2.937   3.111   0.794
 2214SOL    HW2 6661   2.992   3.264   0.813
 2215SOL     OW 6662   2.181   2.672   0.949
 2215SOL    HW1 6663   2.274   2.708   0.954
 2215SOL    HW2 6664   2.175   2.587   1.001
 2216SOL     OW 6665   2.201   2.371   1.006
 2216SOL    HW1 6666   2.149   2.288   0.989
 2216SOL    HW2 6667   2.278   2.376   0.942
 2217SOL     OW 6668   3.000   2.242   1.678
 2217SOL    HW1 6669   2.955   2.305   1.742
 2217SOL    HW2 6670   3.093   2.273   1.661
 2218SOL     OW 6671   3.022   2.069   1.477
 2218SOL    HW1 6672   3.022   2.133   1.554
 2218SOL    HW2 6673   3.050   2.117   1.394
 2219SOL     OW 6674   1.870   3.188   0.200
 2219SOL    HW1 6675   1.777   3.209   0.169
 2219SOL    HW2 6676   1.880   3.089   0.213
 2220SOL     OW 6677   1.950   3.663   0.927
 2220SOL    HW1 6678   1.908   3.577   0.900
 2220SOL    HW2 6679   2.044   3.666   0.893
 2221SOL     OW 6680   2.366   3.430   0.910
 2221SOL    HW1 6681   2.432   3.504   0.919
 2221SOL    HW2 6682   2.410   3.351   0.868
 2222SOL     OW 6683   2.864   2.658   1.238
 2222SOL    HW1 6684   2.905   2.626   1.324
 2222SOL    HW2 6685   2.768   2.631   1.235
 2223SOL     OW 6686   1.902   2.406   1.114
 2223SOL    HW1 6687   1.987   2.373   1.073
 2223SOL    HW2 6688   1.915   2.421   1.212
 2224SOL     OW 6689   2.051   2.382   1.722
 2224SOL    HW1 6690   2.110   2.342   1.652
 2224SOL    HW2 6691   1.993   2.453   1.681
 2225SOL     OW 6692   3.231   2.812   1.660
 2225SOL    HW1 6693   3.270   2.901   1.680
 2225SOL    HW2 6694   3.241   2.792   1.563
 2226SOL     OW 6695   2.677   2.434   0.325
 2226SOL    HW1 6696   2.684   2.345   0.279
 2226SOL    HW2 6697   2.583   2.468   0.317
 2227SOL     OW 6698   3.519   2.466   1.206
 2227SOL    HW1 6699   3.481   2.397   1.268
 2227SOL    HW2 6700   3.601   2.430   1.162
 2228SOL     OW 6701   2.114   3.426   1.744
 2228SOL    HW1 6702   2.084   3.483   1.820
 2228SOL    HW2 6703   2.107   3.329   1.770
 2229SOL     OW 6704   2.533   2.326   1.269
 2229SOL    HW1 6705   2.499   2.237   1.239
 2229SOL    HW2 6706   2.559   2.380   1.189
 2230SOL     OW 6707   2.792   3.540   1.465
 2230SOL    HW1 6708   2.768   3.522   1.370
 2230SOL    HW2 6709   2.822   3.634   1.475
 2231SOL     OW 6710   2.335   2.362   0.191
 2231SOL    HW1 6711   2.396   2.442   0.195
 2231SOL    HW2 6712   2.240   2.393   0.198
 2232SOL     OW 6713   2.021   2.999   1.466
 2232SOL    HW1 6714   2.043   2.938   1.542
 2232SOL    HW2 6715   2.031   2.950   1.380
 2233SOL     OW 6716   3.209   2.921   1.234
 2233SOL    HW1 6717   3.233   2.858   1.160
 2233SOL    HW2 6718   3.119   2.961   1.216
 2234SOL     OW 6719   3.164   2.717   0.309
 2234SOL    HW1 6720   3.078   2.686   0.351
 2234SOL    HW2 6721   3.160   2.703   0.210
 2235SOL     OW 6722   3.621   3.609   1.154
 2235SOL    HW1 6723   3.682   3.639   1.081
 2235SOL    HW2 6724   3.583   3.520   1.132
 2236SOL     OW 6725   3.114   3.593   1.128
 2236SOL    HW1 6726   3.198   3.598   1.074
 2236SOL    HW2 6727   3.091   3.497   1.146
 2237SOL     OW 6728   1.945   3.120   1.022
 2237SOL    HW1 6729   1.940   3.119   1.122
 2237SOL    HW2 6730   1.862   3.079   0.984
 2238SOL     OW 6731   2.550   3.524   1.716
 2238SOL    HW1 6732   2.494   3.605   1.725
 2238SOL    HW2 6733   2.602   3.528   1.630
 2239SOL     OW 6734   2.765   1.948   0.133
 2239SOL    HW1 6735   2.816   1.949   0.047
 2239SOL    HW2 6736   2.821   1.906   0.204
 2240SOL     OW 6737   3.588   1.997   0.523
 2240SOL    HW1 6738   3.661   1.980   0.456
 2240SOL    HW2 6739   3.557   1.910   0.561
 2241SOL     OW 6740   3.250   3.435   0.477
 2241SOL    HW1 6741   3.317   3.447   0.403
 2241SOL    HW2 6742   3.210   3.524   0.500
 2242SOL     OW 6743   1.992   3.656   1.851
 2242SOL    HW1 6744   1.951   3.582   1.904
 2242SOL    HW2 6745   2.056   3.707   1.909
 2243SOL     OW 6746   3.142   2.789   0.672
 2243SOL    HW1 6747   3.202   2.708   0.674
 2243SOL    HW2 6748   3.182   2.858   0.612
 2244SOL     OW 6749   2.692   3.135   1.422
 2244SOL    HW1 6750   2.687   3.168   1.517
 2244SOL    HW2 6751   2.606   3.154   1.376
 2245SOL     OW 6752   2.534   3.478   0.154
 2245SOL    HW1 6753   2.543   3.488   0.055
 2245SOL    HW2 6754   2.494   3.389   0.175
 2246SOL     OW 6755   3.512   3.582   1.394
 2246SOL    HW1 6756   3.565   3.592   1.310
 2246SOL    HW2 6757   3.485   3.672   1.428
 2247SOL     OW 6758   3.703   2.037   0.963
 2247SOL    HW1 6759   3.742   1.952   0.927
 2247SOL    HW2 6760   3.605   2.039   0.944
 2248SOL     OW 6761   2.125   2.188   0.720
 2248SOL    HW1 6762   2.046   2.239   0.686
 2248SOL    HW2 6763   2.116   2.173   0.818
 2249SOL     OW 6764   3.056   3.474   0.031
 2249SOL    HW1 6765   3.062   3.381   0.068
 2249SOL    HW2 6766   2.997   3.474  -0.049
 2250SOL     OW 6767   2.684   2.864   1.372
 2250SOL    HW1 6768   2.724   2.863   1.280
 2250SOL    HW2 6769   2.694   2.956   1.412
 2251SOL     OW 6770   2.778   2.772   0.291
 2251SOL    HW1 6771   2.841   2.810   0.223
 2251SOL    HW2 6772   2.818   2.689   0.330
 2252SOL     OW 6773   3.366   3.469   0.044
 2252SOL    HW1 6774   3.274   3.506   0.051
 2252SOL    HW2 6775   3.404   3.489  -0.046
 2253SOL     OW 6776   2.234   3.150   1.490
 2253SOL    HW1 6777   2.221   3.243   1.456
 2253SOL    HW2 6778   2.150   3.098   1.477
 2254SOL     OW 6779   3.476   3.154   1.289
 2254SOL    HW1 6780   3.536   3.157   1.369
 2254SOL    HW2 6781   3.401   3.218   1.302
 2255SOL     OW 6782   2.901   2.960   0.696
 2255SOL    HW1 6783   2.831   2.913   0.750
 2255SOL    HW2 6784   2.960   2.892   0.653
 2256SOL     OW 6785   2.876   2.098   0.971
 2256SOL    HW1 6786   2.868   2.062   0.878
 2256SOL    HW2 6787   2.874   2.022   1.036
 2257SOL     OW 6788   2.452   3.349   0.491
 2257SOL    HW1 6789   2.494   3.291   0.421
 2257SOL    HW2 6790   2.408   3.428   0.447
 2258SOL     OW 6791   3.571   2.247   1.381
 2258SOL    HW1 6792   3.644   2.316   1.385
 2258SOL    HW2 6793   3.599   2.172   1.322
 2259SOL     OW 6794   2.117   3.210   0.290
 2259SOL    HW1 6795   2.021   3.211   0.263
 2259SOL    HW2 6796   2.129   3.263   0.374
 2260SOL     OW 6797   1.967   2.875   1.726
 2260SOL    HW1 6798   1.890   2.842   1.780
 2260SOL    HW2 6799   2.052   2.845   1.768
 2261SOL     OW 6800   2.534   2.065   1.489
 2261SOL    HW1 6801   2.624   2.049   1.449
 2261SOL    HW2 6802   2.542   2.070   1.588
 2262SOL     OW 6803   3.302   2.718   1.398
 2262SOL    HW1 6804   3.245   2.770   1.335
 2262SOL    HW2 6805   3.398   2.730   1.374
 2263SOL     OW 6806   1.934   2.028   0.318
 2263SOL    HW1 6807   1.917   2.111   0.264
 2263SOL    HW2 6808   2.024   1.991   0.296
 2264SOL     OW 6809   3.045   3.197   0.119
 2264SOL    HW1 6810   2.946   3.186   0.121
 2264SOL    HW2 6811   3.079   3.212   0.212
 2265SOL     OW 6812   2.475   2.704   1.431
 2265SOL    HW1 6813   2.531   2.785   1.414
 2265SOL    HW2 6814   2.534   2.624   1.434
 2266SOL     OW 6815   3.355   3.629   0.959
 2266SOL    HW1 6816   3.388   3.693   0.890
 2266SOL    HW2 6817   3.421   3.623   1.034
 2267SOL     OW 6818   2.578   2.427   1.708
 2267SOL    HW1 6819   2.597   2.492   1.782
 2267SOL    HW2 6820   2.638   2.347   1.717
 2268SOL     OW 6821   3.312   3.082   1.633
 2268SOL    HW1 6822   3.303   3.072   1.732
 2268SOL    HW2 6823   3.408   3.075   1.607
 2269SOL     OW 6824   2.252   3.603   1.560
 2269SOL    HW1 6825   2.161   3.644   1.558
 2269SOL    HW2 6826   2.245   3.509   1.592
 2270SOL     OW 6827   3.536   2.745   1.254
 2270SOL    HW1 6828   3.509   2.656   1.217
 2270SOL    HW2 6829   3.537   2.813   1.181
 2271SOL     OW 6830   3.087   2.187   0.449
 2271SOL    HW1 6831   3.152   2.113   0.438
 2271SOL    HW2 6832   3.107   2.237   0.533
 2272SOL     OW 6833   2.456   2.607   0.652
 2272SOL    HW1 6834   2.506   2.692   0.633
 2272SOL    HW2 6835   2.368   2.609   0.604
 2273SOL     OW 6836   3.639   2.204   1.642
 2273SOL    HW1 6837   3.622   2.235   1.548
 2273SOL    HW2 6838   3.555   2.167   1.680
 2274SOL     OW 6839   3.592   2.796   1.517
 2274SOL    HW1 6840   3.630   2.887   1.532
 2274SOL    HW2 6841   3.584   2.779   1.418
 2275SOL     OW 6842   2.721   3.236   0.016
 2275SOL    HW1 6843   2.675   3.251   0.104
 2275SOL    HW2 6844   2.765   3.321  -0.014
 2276SOL     OW 6845   2.523   3.652   0.953
 2276SOL    HW1 6846   2.477   3.740   0.940
 2276SOL    HW2 6847   2.622   3.664   0.946
 2277SOL     OW 6848   2.721   2.818   0.861
 2277SOL    HW1 6849   2.775   2.749   0.909
 2277SOL    HW2 6850   2.689   2.887   0.927
 2278SOL     OW 6851   2.945   2.846   0.087
 2278SOL    HW1 6852   2.922   2.899   0.005
 2278SOL    HW2 6853   3.026   2.790   0.068
 2279SOL     OW 6854   3.723   3.431   0.851
 2279SOL    HW1 6855   3.652   3.419   0.781
 2279SOL    HW2 6856   3.724   3.352   0.911
 2280SOL     OW 6857   2.083   3.176   1.844
 2280SOL    HW1 6858   2.018   3.103   1.823
 2280SOL    HW2 6859   2.087   3.190   1.942
 2281SOL     OW 6860   1.941   3.102   0.653
 2281SOL    HW1 6861   1.940   3.055   0.741
 2281SOL    HW2 6862   2.023   3.074   0.602
 2282SOL     OW 6863   2.534   3.253   1.624
 2282SOL    HW1 6864   2.456   3.203   1.662
 2282SOL    HW2 6865   2.531   3.348   1.655
 2283SOL     OW 6866   3.686   2.054   1.227
 2283SOL    HW1 6867   3.682   1.964   1.271
 2283SOL    HW2 6868   3.689   2.043   1.128
 2284SOL     OW 6869   2.290   2.286   0.520
 2284SOL    HW1 6870   2.320   2.214   0.458
 2284SOL    HW2 6871   2.251   2.246   0.603
 2285SOL     OW 6872   3.567   3.349   1.104
 2285SOL    HW1 6873   3.474   3.324   1.077
 2285SOL    HW2 6874   3.593   3.299   1.186
 2286SOL     OW 6875   2.179   2.409   1.280
 2286SOL    HW1 6876   2.217   2.350   1.352
 2286SOL    HW2 6877   2.219   2.383   1.192
 2287SOL     OW 6878   2.674   3.448   0.687
 2287SOL    HW1 6879   2.706   3.458   0.593
 2287SOL    HW2 6880   2.595   3.386   0.689
 2288SOL     OW 6881   3.286   2.076   1.112
 2288SOL    HW1 6882   3.338   2.011   1.167
 2288SOL    HW2 6883   3.237   2.139   1.173
 2289SOL     OW 6884   2.863   1.896   1.154
 2289SOL    HW1 6885   2.800   1.824   1.123
 2289SOL    HW2 6886   2.956   1.860   1.154
 2290SOL     OW 6887   2.632   3.192   0.301
 2290SOL    HW1 6888   2.586   3.105   0.318
 2290SOL    HW2 6889   2.723   3.189   0.342
 2291SOL     OW 6890   2.480   3.429   1.284
 2291SOL    HW1 6891   2.475   3.511   1.341
 2291SOL    HW2 6892   2.569   3.426   1.239
 2292SOL     OW 6893   3.214   1.914   0.168
 2292SOL    HW1 6894   3.249   1.873   0.084
 2292SOL    HW2 6895   3.124   1.876   0.188
 2293SOL     OW 6896   3.162   2.315   0.691
 2293SOL    HW1 6897   3.103   2.395   0.695
 2293SOL    HW2 6898   3.177   2.280   0.784
 2294SOL     OW 6899   3.455   2.083   0.882
 2294SOL    HW1 6900   3.371   2.082   0.936
 2294SOL    HW2 6901   3.457   2.166   0.826
 2295SOL     OW 6902   2.737   3.508   0.337
 2295SOL    HW1 6903   2.660   3.473   0.283
 2295SOL    HW2 6904   2.705   3.579   0.399
 2296SOL     OW 6905   2.092   2.490   1.975
 2296SOL    HW1 6906   1.999   2.488   2.012
 2296SOL    HW2 6907   2.093   2.451   1.883
 2297SOL     OW 6908   2.087   2.137   2.858
 2297SOL    HW1 6909   2.122   2.120   2.950
 2297SOL    HW2 6910   1.999   2.092   2.846
 2298SOL     OW 6911   1.881   2.230   2.509
 2298SOL    HW1 6912   1.799   2.273   2.548
 2298SOL    HW2 6913   1.853   2.157   2.446
 2299SOL     OW 6914   2.431   3.137   3.027
 2299SOL    HW1 6915   2.338   3.130   2.990
 2299SOL    HW2 6916   2.442   3.226   3.071
 2300SOL     OW 6917   3.417   3.373   2.565
 2300SOL    HW1 6918   3.360   3.357   2.646
 2300SOL    HW2 6919   3.358   3.383   2.485
 2301SOL     OW 6920   2.997   2.565   2.579
 2301SOL    HW1 6921   3.054   2.643   2.554
 2301SOL    HW2 6922   2.937   2.591   2.655
 2302SOL     OW 6923   3.617   2.469   2.093
 2302SOL    HW1 6924   3.605   2.456   1.994
 2302SOL    HW2 6925   3.587   2.388   2.142
 2303SOL     OW 6926   2.630   3.006   2.885
 2303SOL    HW1 6927   2.552   3.023   2.945
 2303SOL    HW2 6928   2.664   3.093   2.849
 2304SOL     OW 6929   2.712   2.660   3.685
 2304SOL    HW1 6930   2.708   2.736   3.750
 2304SOL    HW2 6931   2.734   2.696   3.594
 2305SOL     OW 6932   2.548   3.023   3.665
 2305SOL    HW1 6933   2.608   3.102   3.679
 2305SOL    HW2 6934   2.462   3.054   3.624
 2306SOL     OW 6935   2.197   3.297   2.923
 2306SOL    HW1 6936   2.119   3.266   2.870
 2306SOL    HW2 6937   2.255   3.355   2.866
 2307SOL     OW 6938   3.322   3.367   3.201
 2307SOL    HW1 6939   3.346   3.461   3.227
 2307SOL    HW2 6940   3.306   3.313   3.283
 2308SOL     OW 6941   2.300   2.254   3.361
 2308SOL    HW1 6942   2.382   2.198   3.370
 2308SOL    HW2 6943   2.219   2.196   3.365
 2309SOL     OW 6944   3.465   2.309   2.599
 2309SOL    HW1 6945   3.391   2.355   2.549
 2309SOL    HW2 6946   3.516   2.377   2.652
 2310SOL     OW 6947   2.093   3.575   2.345
 2310SOL    HW1 6948   2.127   3.652   2.399
 2310SOL    HW2 6949   2.137   3.575   2.255
 2311SOL     OW 6950   2.989   3.203   3.552
 2311SOL    HW1 6951   3.036   3.203   3.640
 2311SOL    HW2 6952   2.941   3.116   3.541
 2312SOL     OW 6953   2.092   3.296   2.400
 2312SOL    HW1 6954   2.066   3.392   2.400
 2312SOL    HW2 6955   2.021   3.242   2.445
 2313SOL     OW 6956   2.102   2.953   2.748
 2313SOL    HW1 6957   2.116   2.869   2.800
 2313SOL    HW2 6958   2.047   3.017   2.803
 2314SOL     OW 6959   2.482   3.648   3.301
 2314SOL    HW1 6960   2.390   3.631   3.336
 2314SOL    HW2 6961   2.510   3.740   3.327
 2315SOL     OW 6962   2.468   2.826   1.985
 2315SOL    HW1 6963   2.475   2.910   1.931
 2315SOL    HW2 6964   2.514   2.839   2.073
 2316SOL     OW 6965   3.456   1.976   3.342
 2316SOL    HW1 6966   3.438   2.043   3.270
 2316SOL    HW2 6967   3.453   2.022   3.431
 2317SOL     OW 6968   1.984   2.505   2.425
 2317SOL    HW1 6969   1.939   2.417   2.442
 2317SOL    HW2 6970   1.983   2.559   2.509
 2318SOL     OW 6971   3.704   3.629   2.221
 2318SOL    HW1 6972   3.758   3.600   2.301
 2318SOL    HW2 6973   3.734   3.719   2.192
 2319SOL     OW 6974   1.889   3.458   1.979
 2319SOL    HW1 6975   1.870   3.362   2.000
 2319SOL    HW2 6976   1.856   3.516   2.054
 2320SOL     OW 6977   3.551   2.784   2.474
 2320SOL    HW1 6978   3.646   2.755   2.482
 2320SOL    HW2 6979   3.543   2.849   2.399
 2321SOL     OW 6980   3.503   2.970   2.294
 2321SOL    HW1 6981   3.589   2.972   2.242
 2321SOL    HW2 6982   3.517   3.017   2.382
 2322SOL     OW 6983   1.975   2.599   3.459
 2322SOL    HW1 6984   2.063   2.586   3.504
 2322SOL    HW2 6985   1.962   2.696   3.437
 2323SOL     OW 6986   2.475   3.227   2.588
 2323SOL    HW1 6987   2.426   3.140   2.597
 2323SOL    HW2 6988   2.452   3.270   2.501
 2324SOL     OW 6989   3.155   3.090   3.285
 2324SOL    HW1 6990   3.192   3.017   3.227
 2324SOL    HW2 6991   3.207   3.095   3.370
 2325SOL     OW 6992   2.671   1.866   2.364
 2325SOL    HW1 6993   2.711   1.957   2.355
 2325SOL    HW2 6994   2.571   1.874   2.370
 2326SOL     OW 6995   2.059   2.838   3.126
 2326SOL    HW1 6996   2.148   2.793   3.112
 2326SOL    HW2 6997   1.986   2.773   3.107
 2327SOL     OW 6998   3.387   2.861   2.052
 2327SOL    HW1 6999   3.324   2.785   2.065
 2327SOL    HW2 7000   3.435   2.879   2.138
 2328SOL     OW 7001   3.049   3.654   3.478
 2328SOL    HW1 7002   3.073   3.714   3.402
 2328SOL    HW2 7003   3.056   3.559   3.448
 2329SOL     OW 7004   2.179   2.113   3.663
 2329SOL    HW1 7005   2.250   2.184   3.669
 2329SOL    HW2 7006   2.091   2.152   3.691
 2330SOL     OW 7007   3.328   3.279   2.815
 2330SOL    HW1 7008   3.269   3.285   2.895
 2330SOL    HW2 7009   3.313   3.191   2.769
 2331SOL     OW 7010   3.529   3.576   2.434
 2331SOL    HW1 7011   3.488   3.553   2.346
 2331SOL    HW2 7012   3.511   3.502   2.499
 2332SOL     OW 7013   3.143   2.207   2.806
 2332SOL    HW1 7014   3.057   2.157   2.793
 2332SOL    HW2 7015   3.205   2.153   2.862
 2333SOL     OW 7016   3.438   3.524   2.169
 2333SOL    HW1 7017   3.527   3.570   2.172
 2333SOL    HW2 7018   3.417   3.500   2.074
 2334SOL     OW 7019   2.669   2.467   3.327
 2334SOL    HW1 7020   2.622   2.464   3.416
 2334SOL    HW2 7021   2.618   2.412   3.261
 2335SOL     OW 7022   3.256   2.331   3.536
 2335SOL    HW1 7023   3.236   2.374   3.624
 2335SOL    HW2 7024   3.334   2.269   3.545
 2336SOL     OW 7025   2.835   2.752   3.434
 2336SOL    HW1 7026   2.881   2.668   3.405
 2336SOL    HW2 7027   2.779   2.786   3.359
 2337SOL     OW 7028   2.853   2.272   3.104
 2337SOL    HW1 7029   2.776   2.306   3.158
 2337SOL    HW2 7030   2.819   2.221   3.025
 2338SOL     OW 7031   2.903   2.563   2.291
 2338SOL    HW1 7032   2.929   2.559   2.387
 2338SOL    HW2 7033   2.818   2.512   2.277
 2339SOL     OW 7034   1.938   2.673   2.651
 2339SOL    HW1 7035   2.037   2.661   2.660
 2339SOL    HW2 7036   1.914   2.768   2.672
 2340SOL     OW 7037   1.992   3.683   3.433
 2340SOL    HW1 7038   1.982   3.668   3.532
 2340SOL    HW2 7039   1.906   3.719   3.397
 2341SOL     OW 7040   2.727   2.210   2.057
 2341SOL    HW1 7041   2.786   2.273   2.008
 2341SOL    HW2 7042   2.746   2.116   2.028
 2342SOL     OW 7043   3.581   2.447   3.693
 2342SOL    HW1 7044   3.555   2.536   3.657
 2342SOL    HW2 7045   3.579   2.379   3.620
 2343SOL     OW 7046   3.224   3.006   2.407
 2343SOL    HW1 7047   3.307   2.977   2.359
 2343SOL    HW2 7048   3.175   3.073   2.351
 2344SOL     OW 7049   2.412   2.058   2.747
 2344SOL    HW1 7050   2.407   2.053   2.847
 2344SOL    HW2 7051   2.414   2.154   2.718
 2345SOL     OW 7052   2.870   3.318   2.339
 2345SOL    HW1 7053   2.824   3.390   2.287
 2345SOL    HW2 7054   2.866   3.338   2.437
 2346SOL     OW 7055   2.213   3.663   2.715
 2346SOL    HW1 7056   2.263   3.577   2.721
 2346SOL    HW2 7057   2.278   3.740   2.712
 2347SOL     OW 7058   3.657   2.928   2.735
 2347SOL    HW1 7059   3.595   2.913   2.659
 2347SOL    HW2 7060   3.605   2.939   2.820
 2348SOL     OW 7061   3.089   3.412   3.368
 2348SOL    HW1 7062   3.095   3.335   3.432
 2348SOL    HW2 7063   3.037   3.386   3.288
 2349SOL     OW 7064   2.183   2.805   2.104
 2349SOL    HW1 7065   2.265   2.844   2.062
 2349SOL    HW2 7066   2.156   2.723   2.055
 2350SOL     OW 7067   3.320   2.597   2.590
 2350SOL    HW1 7068   3.315   2.532   2.665
 2350SOL    HW2 7069   3.400   2.656   2.603
 2351SOL     OW 7070   2.323   3.128   3.589
 2351SOL    HW1 7071   2.273   3.129   3.503
 2351SOL    HW2 7072   2.260   3.110   3.665
 2352SOL     OW 7073   2.973   3.638   2.099
 2352SOL    HW1 7074   2.913   3.576   2.149
 2352SOL    HW2 7075   3.004   3.594   2.014
 2353SOL     OW 7076   2.064   2.147   3.360
 2353SOL    HW1 7077   1.984   2.207   3.347
 2353SOL    HW2 7078   2.054   2.098   3.446
 2354SOL     OW 7079   3.494   3.239   1.943
 2354SOL    HW1 7080   3.462   3.333   1.933
 2354SOL    HW2 7081   3.418   3.176   1.931
 2355SOL     OW 7082   2.326   3.605   2.185
 2355SOL    HW1 7083   2.359   3.644   2.271
 2355SOL    HW2 7084   2.402   3.598   2.120
 2356SOL     OW 7085   3.262   1.969   2.288
 2356SOL    HW1 7086   3.238   1.932   2.198
 2356SOL    HW2 7087   3.361   1.985   2.292
 2357SOL     OW 7088   2.111   3.647   3.103
 2357SOL    HW1 7089   2.168   3.582   3.153
 2357SOL    HW2 7090   2.095   3.614   3.010
 2358SOL     OW 7091   2.802   3.560   2.766
 2358SOL    HW1 7092   2.882   3.503   2.787
 2358SOL    HW2 7093   2.753   3.520   2.689
 2359SOL     OW 7094   3.409   2.084   3.591
 2359SOL    HW1 7095   3.404   2.121   3.683
 2359SOL    HW2 7096   3.337   2.015   3.579
 2360SOL     OW 7097   2.476   1.984   1.979
 2360SOL    HW1 7098   2.574   1.962   1.986
 2360SOL    HW2 7099   2.445   1.967   1.886
 2361SOL     OW 7100   2.643   2.126   3.611
 2361SOL    HW1 7101   2.710   2.065   3.654
 2361SOL    HW2 7102   2.570   2.145   3.676
 2362SOL     OW 7103   2.750   3.376   3.057
 2362SOL    HW1 7104   2.727   3.351   2.963
 2362SOL    HW2 7105   2.811   3.307   3.096
 2363SOL     OW 7106   3.213   2.452   3.295
 2363SOL    HW1 7107   3.241   2.409   3.380
 2363SOL    HW2 7108   3.238   2.548   3.296
 2364SOL     OW 7109   2.665   3.264   2.786
 2364SOL    HW1 7110   2.755   3.278   2.744
 2364SOL    HW2 7111   2.594   3.266   2.715
 2365SOL     OW 7112   2.784   2.365   2.761
 2365SOL    HW1 7113   2.759   2.356   2.665
 2365SOL    HW2 7114   2.832   2.283   2.792
 2366SOL     OW 7115   2.401   1.926   2.374
 2366SOL    HW1 7116   2.320   1.927   2.432
 2366SOL    HW2 7117   2.404   2.009   2.319
 2367SOL     OW 7118   3.296   3.050   1.903
 2367SOL    HW1 7119   3.328   2.974   1.960
 2367SOL    HW2 7120   3.204   3.077   1.933
 2368SOL     OW 7121   2.159   1.897   2.033
 2368SOL    HW1 7122   2.208   1.981   2.012
 2368SOL    HW2 7123   2.221   1.832   2.078
 2369SOL     OW 7124   2.797   2.098   2.342
 2369SOL    HW1 7125   2.749   2.139   2.264
 2369SOL    HW2 7126   2.896   2.096   2.323
 2370SOL     OW 7127   2.938   2.545   3.326
 2370SOL    HW1 7128   2.858   2.484   3.329
 2370SOL    HW2 7129   3.019   2.492   3.302
 2371SOL     OW 7130   3.089   3.432   2.655
 2371SOL    HW1 7131   3.110   3.506   2.590
 2371SOL    HW2 7132   3.157   3.432   2.728
 2372SOL     OW 7133   2.321   3.014   2.603
 2372SOL    HW1 7134   2.250   2.987   2.668
 2372SOL    HW2 7135   2.295   2.986   2.510
 2373SOL     OW 7136   3.133   3.659   2.453
 2373SOL    HW1 7137   3.177   3.723   2.389
 2373SOL    HW2 7138   3.083   3.711   2.523
 2374SOL     OW 7139   2.894   2.411   1.878
 2374SOL    HW1 7140   2.853   2.493   1.839
 2374SOL    HW2 7141   2.958   2.437   1.951
 2375SOL     OW 7142   1.940   2.418   3.248
 2375SOL    HW1 7143   2.032   2.417   3.207
 2375SOL    HW2 7144   1.934   2.492   3.315
 2376SOL     OW 7145   2.423   2.084   3.009
 2376SOL    HW1 7146   2.461   2.000   3.046
 2376SOL    HW2 7147   2.335   2.103   3.053
 2377SOL     OW 7148   2.879   1.901   2.615
 2377SOL    HW1 7149   2.807   1.906   2.546
 2377SOL    HW2 7150   2.855   1.832   2.684
 2378SOL     OW 7151   3.291   3.035   2.729
 2378SOL    HW1 7152   3.236   2.951   2.722
 2378SOL    HW2 7153   3.317   3.064   2.637
 2379SOL     OW 7154   3.328   2.452   2.854
 2379SOL    HW1 7155   3.298   2.357   2.861
 2379SOL    HW2 7156   3.401   2.468   2.920
 2380SOL     OW 7157   3.719   2.695   2.239
 2380SOL    HW1 7158   3.761   2.631   2.303
 2380SOL    HW2 7159   3.681   2.644   2.161
 2381SOL     OW 7160   2.350   3.247   2.036
 2381SOL    HW1 7161   2.263   3.232   2.083
 2381SOL    HW2 7162   2.333   3.273   1.941
 2382SOL     OW 7163   3.526   3.142   2.519
 2382SOL    HW1 7164   3.625   3.150   2.533
 2382SOL    HW2 7165   3.481   3.226   2.550
 2383SOL     OW 7166   3.252   2.437   1.940
 2383SOL    HW1 7167   3.198   2.416   2.021
 2383SOL    HW2 7168   3.343   2.396   1.949
 2384SOL     OW 7169   2.389   2.118   2.190
 2384SOL    HW1 7170   2.416   2.059   2.115
 2384SOL    HW2 7171   2.389   2.213   2.159
 2385SOL     OW 7172   3.616   3.085   3.450
 2385SOL    HW1 7173   3.707   3.046   3.437
 2385SOL    HW2 7174   3.624   3.181   3.474
 2386SOL     OW 7175   2.926   3.209   3.202
 2386SOL    HW1 7176   2.846   3.186   3.257
 2386SOL    HW2 7177   3.009   3.183   3.251
 2387SOL     OW 7178   3.454   3.491   3.487
 2387SOL    HW1 7179   3.481   3.525   3.397
 2387SOL    HW2 7180   3.533   3.453   3.533
 2388SOL     OW 7181   2.973   3.057   2.962
 2388SOL    HW1 7182   2.933   3.101   3.043
 2388SOL    HW2 7183   2.932   3.094   2.879
 2389SOL     OW 7184   3.500   2.961   2.941
 2389SOL    HW1 7185   3.505   3.042   3.000
 2389SOL    HW2 7186   3.414   2.963   2.890
 2390SOL     OW 7187   2.777   1.951   3.264
 2390SOL    HW1 7188   2.802   1.931   3.169
 2390SOL    HW2 7189   2.849   2.007   3.306
 2391SOL     OW 7190   2.842   2.978   3.581
 2391SOL    HW1 7191   2.743   2.984   3.591
 2391SOL    HW2 7192   2.865   2.898   3.525
 2392SOL     OW 7193   2.567   2.912   2.230
 2392SOL    HW1 7194   2.553   2.919   2.329
 2392SOL    HW2 7195   2.651   2.861   2.212
 2393SOL     OW 7196   2.272   2.675   3.113
 2393SOL    HW1 7197   2.358   2.687   3.163
 2393SOL    HW2 7198   2.230   2.588   3.140
 2394SOL     OW 7199   3.136   2.248   3.124
 2394SOL    HW1 7200   3.157   2.322   3.188
 2394SOL    HW2 7201   3.047   2.265   3.081
 2395SOL     OW 7202   1.926   3.426   3.193
 2395SOL    HW1 7203   1.880   3.508   3.159
 2395SOL    HW2 7204   2.024   3.445   3.202
 2396SOL     OW 7205   2.229   2.962   2.363
 2396SOL    HW1 7206   2.222   3.045   2.307
 2396SOL    HW2 7207   2.233   2.882   2.303
 2397SOL     OW 7208   3.114   3.210   2.250
 2397SOL    HW1 7209   3.164   3.287   2.290
 2397SOL    HW2 7210   3.019   3.212   2.282
 2398SOL     OW 7211   3.134   3.307   3.004
 2398SOL    HW1 7212   3.181   3.320   3.091
 2398SOL    HW2 7213   3.068   3.233   3.013
 2399SOL     OW 7214   3.444   2.501   2.334
 2399SOL    HW1 7215   3.413   2.562   2.407
 2399SOL    HW2 7216   3.494   2.553   2.265
 2400SOL     OW 7217   2.216   3.372   3.191
 2400SOL    HW1 7218   2.195   3.328   3.104
 2400SOL    HW2 7219   2.313   3.398   3.194
 2401SOL     OW 7220   2.264   2.613   3.460
 2401SOL    HW1 7221   2.332   2.668   3.413
 2401SOL    HW2 7222   2.304   2.525   3.487
 2402SOL     OW 7223   3.449   2.641   3.532
 2402SOL    HW1 7224   3.357   2.679   3.527
 2402SOL    HW2 7225   3.509   2.688   3.467
 2403SOL     OW 7226   2.875   1.967   3.632
 2403SOL    HW1 7227   2.881   2.052   3.580
 2403SOL    HW2 7228   2.907   1.891   3.575
 2404SOL     OW 7229   2.366   1.912   3.602
 2404SOL    HW1 7230   2.324   1.855   3.532
 2404SOL    HW2 7231   2.300   1.981   3.634
 2405SOL     OW 7232   2.435   2.732   2.891
 2405SOL    HW1 7233   2.479   2.821   2.882
 2405SOL    HW2 7234   2.372   2.732   2.968
 2406SOL     OW 7235   3.222   2.724   2.907
 2406SOL    HW1 7236   3.147   2.724   2.841
 2406SOL    HW2 7237   3.259   2.632   2.916
 2407SOL     OW 7238   3.071   2.387   2.137
 2407SOL    HW1 7239   3.084   2.303   2.191
 2407SOL    HW2 7240   3.042   2.461   2.197
 2408SOL     OW 7241   2.169   2.075   3.093
 2408SOL    HW1 7242   2.146   2.112   3.183
 2408SOL    HW2 7243   2.139   1.980   3.087
 2409SOL     OW 7244   1.899   3.172   3.144
 2409SOL    HW1 7245   1.952   3.123   3.212
 2409SOL    HW2 7246   1.921   3.270   3.149
 2410SOL     OW 7247   3.590   2.797   3.716
 2410SOL    HW1 7248   3.544   2.790   3.627
 2410SOL    HW2 7249   3.528   2.841   3.782
 2411SOL     OW 7250   2.169   1.925   2.480
 2411SOL    HW1 7251   2.158   2.019   2.513
 2411SOL    HW2 7252   2.164   1.862   2.557
 2412SOL     OW 7253   3.484   2.229   2.236
 2412SOL    HW1 7254   3.486   2.153   2.300
 2412SOL    HW2 7255   3.436   2.306   2.276
 2413SOL     OW 7256   2.885   2.628   2.828
 2413SOL    HW1 7257   2.900   2.649   2.924
 2413SOL    HW2 7258   2.855   2.533   2.819
 2414SOL     OW 7259   2.842   3.435   3.562
 2414SOL    HW1 7260   2.822   3.479   3.474
 2414SOL    HW2 7261   2.881   3.344   3.546
 2415SOL     OW 7262   3.721   3.380   3.467
 2415SOL    HW1 7263   3.735   3.407   3.372
 2415SOL    HW2 7264   3.804   3.402   3.520
 2416SOL     OW 7265   2.212   2.760   3.666
 2416SOL    HW1 7266   2.288   2.804   3.714
 2416SOL    HW2 7267   2.247   2.713   3.584
 2417SOL     OW 7268   3.402   2.136   1.987
 2417SOL    HW1 7269   3.341   2.061   2.010
 2417SOL    HW2 7270   3.424   2.188   2.070
 2418SOL     OW 7271   3.165   2.700   1.904
 2418SOL    HW1 7272   3.199   2.607   1.919
 2418SOL    HW2 7273   3.183   2.727   1.809
 2419SOL     OW 7274   2.930   3.195   2.711
 2419SOL    HW1 7275   2.937   3.111   2.656
 2419SOL    HW2 7276   2.992   3.264   2.675
 2420SOL     OW 7277   2.181   2.672   2.811
 2420SOL    HW1 7278   2.274   2.708   2.816
 2420SOL    HW2 7279   2.175   2.587   2.863
 2421SOL     OW 7280   3.000   2.242   3.540
 2421SOL    HW1 7281   2.955   2.305   3.604
 2421SOL    HW2 7282   3.093   2.273   3.523
 2422SOL     OW 7283   3.022   2.069   3.339
 2422SOL    HW1 7284   3.022   2.133   3.416
 2422SOL    HW2 7285   3.050   2.117   3.256
 2423SOL     OW 7286   1.870   3.188   2.062
 2423SOL    HW1 7287   1.777   3.209   2.031
 2423SOL    HW2 7288   1.880   3.089   2.075
 2424SOL     OW 7289   1.950   3.663   2.789
 2424SOL    HW1 7290   1.908   3.577   2.762
 2424SOL    HW2 7291   2.044   3.666   2.755
 2425SOL     OW 7292   2.366   3.430   2.772
 2425SOL    HW1 7293   2.432   3.504   2.781
 2425SOL    HW2 7294   2.410   3.351   2.730
 2426SOL     OW 7295   2.864   2.658   3.100
 2426SOL    HW1 7296   2.905   2.626   3.186
 2426SOL    HW2 7297   2.768   2.631   3.097
 2427SOL     OW 7298   1.902   2.406   2.976
 2427SOL    HW1 7299   1.987   2.373   2.935
 2427SOL    HW2 7300   1.915   2.421   3.074
 2428SOL     OW 7301   2.051   2.382   3.584
 2428SOL    HW1 7302   2.110   2.342   3.514
 2428SOL    HW2 7303   1.993   2.453   3.543
 2429SOL     OW 7304   3.231   2.812   3.522
 2429SOL    HW1 7305   3.270   2.901   3.542
 2429SOL    HW2 7306   3.241   2.792   3.425
 2430SOL     OW 7307   3.519   2.466   3.068
 2430SOL    HW1 7308   3.481   2.397   3.130
 2430SOL    HW2 7309   3.601   2.430   3.024
 2431SOL     OW 7310   2.114   3.426   3.606
 2431SOL    HW1 7311   2.084   3.483   3.682
 2431SOL    HW2 7312   2.107   3.329   3.632
 2432SOL     OW 7313   2.792   3.540   3.327
 2432SOL    HW1 7314   2.768   3.522   3.232
 2432SOL    HW2 7315   2.822   3.634   3.337
 2433SOL     OW 7316   2.021   2.999   3.328
 2433SOL    HW1 7317   2.043   2.938   3.404
 2433SOL    HW2 7318   2.031   2.950   3.242
 2434SOL     OW 7319   3.209   2.921   3.096
 2434SOL    HW1 7320   3.233   2.858   3.022
 2434SOL    HW2 7321   3.119   2.961   3.078
 2435SOL     OW 7322   3.164   2.717   2.171
 2435SOL    HW1 7323   3.078   2.686   2.213
 2435SOL    HW2 7324   3.160   2.703   2.072
 2436SOL     OW 7325   3.621   3.609   3.016
 2436SOL    HW1 7326   3.682   3.639   2.943
 2436SOL    HW2 7327   3.583   3.520   2.994
 2437SOL     OW 7328   3.114   3.593   2.990
 2437SOL    HW1 7329   3.198   3.598   2.936
 2437SOL    HW2 7330   3.091   3.497   3.008
 2438SOL     OW 7331   1.945   3.120   2.884
 2438SOL    HW1 7332   1.940   3.119   2.984
 2438SOL    HW2 7333   1.862   3.079   2.846
 2439SOL     OW 7334   2.550   3.524   3.578
 2439SOL    HW1 7335   2.494   3.605   3.587
 2439SOL    HW2 7336   2.602   3.528   3.492
 2440SOL     OW 7337   3.588   1.997   2.385
 2440SOL    HW1 7338   3.661   1.980   2.318
 2440SOL    HW2 7339   3.557   1.910   2.423
 2441SOL     OW 7340   3.250   3.435   2.339
 2441SOL    HW1 7341   3.317   3.447   2.265
 2441SOL    HW2 7342   3.210   3.524   2.362
 2442SOL     OW 7343   1.992   3.656   3.713
 2442SOL    HW1 7344   1.951   3.582   3.766
 2442SOL    HW2 7345   2.056   3.707   3.771
 2443SOL     OW 7346   3.142   2.789   2.534
 2443SOL    HW1 7347   3.202   2.708   2.536
 2443SOL    HW2 7348   3.182   2.858   2.474
 2444SOL     OW 7349   2.692   3.135   3.284
 2444SOL    HW1 7350   2.687   3.168   3.379
 2444SOL    HW2 7351   2.606   3.154   3.238
 2445SOL     OW 7352   2.534   3.478   2.016
 2445SOL    HW1 7353   2.543   3.488   1.917
 2445SOL    HW2 7354   2.494   3.389   2.037
 2446SOL     OW 7355   3.512   3.582   3.256
 2446SOL    HW1 7356   3.565   3.592   3.172
 2446SOL    HW2 7357   3.485   3.672   3.290
 2447SOL     OW 7358   3.703   2.037   2.825
 2447SOL    HW1 7359   3.742   1.952   2.789
 2447SOL    HW2 7360   3.605   2.039   2.806
 2448SOL     OW 7361   2.125   2.188   2.582
 2448SOL    HW1 7362   2.046   2.239   2.548
 2448SOL    HW2 7363   2.116   2.173   2.680
 2449SOL     OW 7364   3.056   3.474   1.893
 2449SOL    HW1 7365   3.062   3.381   1.930
 2449SOL    HW2 7366   2.997   3.474   1.813
 2450SOL     OW 7367   2.684   2.864   3.234
 2450SOL    HW1 7368   2.724   2.863   3.142
 2450SOL    HW2 7369   2.694   2.956   3.274
 2451SOL     OW 7370   2.778   2.772   2.153
 2451SOL    HW1 7371   2.841   2.810   2.085
 2451SOL    HW2 7372   2.818   2.689   2.192
 2452SOL     OW 7373   3.366   3.469   1.906
 2452SOL    HW1 7374   3.274   3.506   1.913
 2452SOL    HW2 7375   3.404   3.489   1.816
 2453SOL     OW 7376   2.234   3.150   3.352
 2453SOL    HW1 7377   2.221   3.243   3.318
 2453SOL    HW2 7378   2.150   3.098   3.339
 2454SOL     OW 7379   3.476   3.154   3.151
 2454SOL    HW1 7380   3.536   3.157   3.231
 2454SOL    HW2 7381   3.401   3.218   3.164
 2455SOL     OW 7382   2.901   2.960   2.558
 2455SOL    HW1 7383   2.831   2.913   2.612
 2455SOL    HW2 7384   2.960   2.892   2.515
 2456SOL     OW 7385   2.876   2.098   2.833
 2456SOL    HW1 7386   2.868   2.062   2.740
 2456SOL    HW2 7387   2.874   2.022   2.898
 2457SOL     OW 7388   2.452   3.349   2.353
 2457SOL    HW1 7389   2.494   3.291   2.283
 2457SOL    HW2 7390   2.408   3.428   2.309
 2458SOL     OW 7391   3.571   2.247   3.243
 2458SOL    HW1 7392   3.644   2.316   3.247
 2458SOL    HW2 7393   3.599   2.172   3.184
 2459SOL     OW 7394   2.117   3.210   2.152
 2459SOL    HW1 7395   2.021   3.211   2.125
 2459SOL    HW2 7396   2.129   3.263   2.236
 2460SOL     OW 7397   1.967   2.875   3.588
 2460SOL    HW1 7398   1.890   2.842   3.642
 2460SOL    HW2 7399   2.052   2.845   3.630
 2461SOL     OW 7400   2.534   2.065   3.351
 2461SOL    HW1 7401   2.624   2.049   3.311
 2461SOL    HW2 7402   2.542   2.070   3.450
 2462SOL     OW 7403   1.937   2.207   1.895
 2462SOL    HW1 7404   1.845   2.179   1.866
 2462SOL    HW2 7405   1.968   2.284   1.839
 2463SOL     OW 7406   3.302   2.718   3.260
 2463SOL    HW1 7407   3.245   2.770   3.197
 2463SOL    HW2 7408   3.398   2.730   3.236
 2464SOL     OW 7409   1.934   2.028   2.180
 2464SOL    HW1 7410   1.917   2.111   2.126
 2464SOL    HW2 7411   2.024   1.991   2.158
 2465SOL     OW 7412   3.045   3.197   1.981
 2465SOL    HW1 7413   2.946   3.186   1.983
 2465SOL    HW2 7414   3.079   3.212   2.074
 2466SOL     OW 7415   2.475   2.704   3.293
 2466SOL    HW1 7416   2.531   2.785   3.276
 2466SOL    HW2 7417   2.534   2.624   3.296
 2467SOL     OW 7418   3.355   3.629   2.821
 2467SOL    HW1 7419   3.388   3.693   2.752
 2467SOL    HW2 7420   3.421   3.623   2.896
 2468SOL     OW 7421   2.578   2.427   3.570
 2468SOL    HW1 7422   2.597   2.492   3.644
 2468SOL    HW2 7423   2.638   2.347   3.579
 2469SOL     OW 7424   3.312   3.082   3.495
 2469SOL    HW1 7425   3.303   3.072   3.594
 2469SOL    HW2 7426   3.408   3.075   3.469
 2470SOL     OW 7427   2.252   3.603   3.422
 2470SOL    HW1 7428   2.161   3.644   3.420
 2470SOL    HW2 7429   2.245   3.509   3.454
 2471SOL     OW 7430   3.536   2.745   3.116
 2471SOL    HW1 7431   3.509   2.656   3.079
 2471SOL    HW2 7432   3.537   2.813   3.043
 2472SOL     OW 7433   3.087   2.187   2.311
 2472SOL    HW1 7434   3.152   2.113   2.300
 2472SOL    HW2 7435   3.107   2.237   2.395
 2473SOL     OW 7436   3.639   2.204   3.504
 2473SOL    HW1 7437   3.622   2.235   3.410
 2473SOL    HW2 7438   3.555   2.167   3.542
 2474SOL     OW 7439   3.592   2.796   3.379
 2474SOL    HW1 7440   3.630   2.887   3.394
 2474SOL    HW2 7441   3.584   2.779   3.280
 2475SOL     OW 7442   2.721   3.236   1.878
 2475SOL    HW1 7443   2.675   3.251   1.966
 2475SOL    HW2 7444   2.765   3.321   1.848
 2476SOL     OW 7445   2.523   3.652   2.815
 2476SOL    HW1 7446   2.477   3.740   2.802
 2476SOL    HW2 7447   2.622   3.664   2.808
 2477SOL     OW 7448   2.721   2.818   2.723
 2477SOL    HW1 7449   2.775   2.749   2.771
 2477SOL    HW2 7450   2.689   2.887   2.789
 2478SOL     OW 7451   2.945   2.846   1.949
 2478SOL    HW1 7452   2.922   2.899   1.867
 2478SOL    HW2 7453   3.026   2.790   1.930
 2479SOL     OW 7454   3.723   3.431   2.713
 2479SOL    HW1 7455   3.652   3.419   2.643
 2479SOL    HW2 7456   3.724   3.352   2.773
 2480SOL     OW 7457   2.083   3.176   3.706
 2480SOL    HW1 7458   2.018   3.103   3.685
 2480SOL    HW2 7459   2.087   3.190   3.804
 2481SOL     OW 7460   1.941   3.102   2.515
 2481SOL    HW1 7461   1.940   3.055   2.603
 2481SOL    HW2 7462   2.023   3.074   2.464
 2482SOL     OW 7463   2.534   3.253   3.486
 2482SOL    HW1 7464   2.456   3.203   3.524
 2482SOL    HW2 7465   2.531   3.348   3.517
 2483SOL     OW 7466   3.686   2.054   3.089
 2483SOL    HW1 7467   3.682   1.964   3.133
 2483SOL    HW2 7468   3.689   2.043   2.990
 2484SOL     OW 7469   3.567   3.349   2.966
 2484SOL    HW1 7470   3.474   3.324   2.939
 2484SOL    HW2 7471   3.593   3.299   3.048
 2485SOL     OW 7472   2.179   2.409   3.142
 2485SOL    HW1 7473   2.217   2.350   3.214
 2485SOL    HW2 7474   2.219   2.383   3.054
 2486SOL     OW 7475   2.674   3.448   2.549
 2486SOL    HW1 7476   2.706   3.458   2.455
 2486SOL    HW2 7477   2.595   3.386   2.551
 2487SOL     OW 7478   3.286   2.076   2.974
 2487SOL    HW1 7479   3.338   2.011   3.029
 2487SOL    HW2 7480   3.237   2.139   3.035
 2488SOL     OW 7481   2.863   1.896   3.016
 2488SOL    HW1 7482   2.800   1.824   2.985
 2488SOL    HW2 7483   2.956   1.860   3.016
 2489SOL     OW 7484   2.632   3.192   2.163
 2489SOL    HW1 7485   2.586   3.105   2.180
 2489SOL    HW2 7486   2.723   3.189   2.204
 2490SOL     OW 7487   2.480   3.429   3.146
 2490SOL    HW1 7488   2.475   3.511   3.203
 2490SOL    HW2 7489   2.569   3.426   3.101
 2491SOL     OW 7490   3.214   1.914   2.030
 2491SOL    HW1 7491   3.249   1.873   1.946
 2491SOL    HW2 7492   3.124   1.876   2.050
 2492SOL     OW 7493   3.162   2.315   2.553
 2492SOL    HW1 7494   3.103   2.395   2.557
 2492SOL    HW2 7495   3.177   2.280   2.646
 2493SOL     OW 7496   3.455   2.083   2.744
 2493SOL    HW1 7497   3.371   2.082   2.798
 2493SOL    HW2 7498   3.457   2.166   2.688
 2494SOL     OW 7499   1.901   2.939   2.162
 2494SOL    HW1 7500   2.000   2.928   2.153
 2494SOL    HW2 7501   1.861   2.853   2.194
 2495SOL     OW 7502   2.737   3.508   2.199
 2495SOL    HW1 7503   2.660   3.473   2.145
 2495SOL    HW2 7504   2.705   3.579   2.261
 2496SOL     OW 7505   2.092   2.490   3.837
 2496SOL    HW1 7506   1.999   2.488   3.874
 2496SOL    HW2 7507   2.093   2.451   3.745
 2497SOL     OW 7508   2.087   2.137   4.720
 2497SOL    HW1 7509   2.122   2.120   4.812
 2497SOL    HW2 7510   1.999   2.092   4.708
 2498SOL     OW 7511   1.881   2.230   4.371
 2498SOL    HW1 7512   1.799   2.273   4.410
 2498SOL    HW2 7513   1.853   2.157   4.308
 2499SOL     OW 7514   2.431   3.137   4.889
 2499SOL    HW1 7515   2.338   3.130   4.852
 2499SOL    HW2 7516   2.442   3.226   4.933
 2500SOL     OW 7517   3.417   3.373   4.427
 2500SOL    HW1 7518   3.360   3.357   4.508
 2500SOL    HW2 7519   3.358   3.383   4.347
 2501SOL     OW 7520   2.997   2.565   4.441
 2501SOL    HW1 7521   3.054   2.643   4.416
 2501SOL    HW2 7522   2.937   2.591   4.517
 2502SOL     OW 7523   3.617   2.469   3.955
 2502SOL    HW1 7524   3.605   2.456   3.856
 2502SOL    HW2 7525   3.587   2.388   4.004
 2503SOL     OW 7526   2.630   3.006   4.747
 2503SOL    HW1 7527   2.552   3.023   4.807
 2503SOL    HW2 7528   2.664   3.093   4.711
 2504SOL     OW 7529   2.547   2.874   4.389
 2504SOL    HW1 7530   2.616   2.858   4.459
 2504SOL    HW2 7531   2.474   2.931   4.427
 2505SOL     OW 7532   2.197   3.297   4.785
 2505SOL    HW1 7533   2.119   3.266   4.732
 2505SOL    HW2 7534   2.255   3.355   4.728
 2506SOL     OW 7535   3.465   2.309   4.461
 2506SOL    HW1 7536   3.391   2.355   4.411
 2506SOL    HW2 7537   3.516   2.377   4.514
 2507SOL     OW 7538   2.093   3.575   4.207
 2507SOL    HW1 7539   2.127   3.652   4.261
 2507SOL    HW2 7540   2.137   3.575   4.117
 2508SOL     OW 7541   2.092   3.296   4.262
 2508SOL    HW1 7542   2.066   3.392   4.262
 2508SOL    HW2 7543   2.021   3.242   4.307
 2509SOL     OW 7544   2.102   2.953   4.610
 2509SOL    HW1 7545   2.116   2.869   4.662
 2509SOL    HW2 7546   2.047   3.017   4.665
 2510SOL     OW 7547   2.468   2.826   3.847
 2510SOL    HW1 7548   2.475   2.910   3.793
 2510SOL    HW2 7549   2.514   2.839   3.935
 2511SOL     OW 7550   1.984   2.505   4.287
 2511SOL    HW1 7551   1.939   2.417   4.304
 2511SOL    HW2 7552   1.983   2.559   4.371
 2512SOL     OW 7553   3.704   3.629   4.083
 2512SOL    HW1 7554   3.758   3.600   4.163
 2512SOL    HW2 7555   3.734   3.719   4.054
 2513SOL     OW 7556   1.889   3.458   3.841
 2513SOL    HW1 7557   1.870   3.362   3.862
 2513SOL    HW2 7558   1.856   3.516   3.916
 2514SOL     OW 7559   3.551   2.784   4.336
 2514SOL    HW1 7560   3.646   2.755   4.344
 2514SOL    HW2 7561   3.543   2.849   4.261
 2515SOL     OW 7562   3.503   2.970   4.156
 2515SOL    HW1 7563   3.589   2.972   4.104
 2515SOL    HW2 7564   3.517   3.017   4.244
 2516SOL     OW 7565   2.475   3.227   4.450
 2516SOL    HW1 7566   2.426   3.140   4.459
 2516SOL    HW2 7567   2.452   3.270   4.363
 2517SOL     OW 7568   2.671   1.866   4.226
 2517SOL    HW1 7569   2.711   1.957   4.217
 2517SOL    HW2 7570   2.571   1.874   4.232
 2518SOL     OW 7571   2.059   2.838   4.988
 2518SOL    HW1 7572   2.148   2.793   4.974
 2518SOL    HW2 7573   1.986   2.773   4.969
 2519SOL     OW 7574   3.387   2.861   3.914
 2519SOL    HW1 7575   3.324   2.785   3.927
 2519SOL    HW2 7576   3.435   2.879   4.000
 2520SOL     OW 7577   3.328   3.279   4.677
 2520SOL    HW1 7578   3.269   3.285   4.757
 2520SOL    HW2 7579   3.313   3.191   4.631
 2521SOL     OW 7580   3.529   3.576   4.296
 2521SOL    HW1 7581   3.488   3.553   4.208
 2521SOL    HW2 7582   3.511   3.502   4.361
 2522SOL     OW 7583   2.460   2.591   3.994
 2522SOL    HW1 7584   2.484   2.660   3.926
 2522SOL    HW2 7585   2.382   2.624   4.048
 2523SOL     OW 7586   3.143   2.207   4.668
 2523SOL    HW1 7587   3.057   2.157   4.655
 2523SOL    HW2 7588   3.205   2.153   4.724
 2524SOL     OW 7589   3.438   3.524   4.031
 2524SOL    HW1 7590   3.527   3.570   4.034
 2524SOL    HW2 7591   3.417   3.500   3.936
 2525SOL     OW 7592   2.903   2.563   4.153
 2525SOL    HW1 7593   2.929   2.559   4.249
 2525SOL    HW2 7594   2.818   2.512   4.139
 2526SOL     OW 7595   1.938   2.673   4.513
 2526SOL    HW1 7596   2.037   2.661   4.522
 2526SOL    HW2 7597   1.914   2.768   4.534
 2527SOL     OW 7598   2.727   2.210   3.919
 2527SOL    HW1 7599   2.786   2.273   3.870
 2527SOL    HW2 7600   2.746   2.116   3.890
 2528SOL     OW 7601   3.224   3.006   4.269
 2528SOL    HW1 7602   3.307   2.977   4.221
 2528SOL    HW2 7603   3.175   3.073   4.213
 2529SOL     OW 7604   2.412   2.058   4.609
 2529SOL    HW1 7605   2.407   2.053   4.709
 2529SOL    HW2 7606   2.414   2.154   4.580
 2530SOL     OW 7607   2.870   3.318   4.201
 2530SOL    HW1 7608   2.824   3.390   4.149
 2530SOL    HW2 7609   2.866   3.338   4.299
 2531SOL     OW 7610   2.213   3.663   4.577
 2531SOL    HW1 7611   2.263   3.577   4.583
 2531SOL    HW2 7612   2.278   3.740   4.574
 2532SOL     OW 7613   3.657   2.928   4.597
 2532SOL    HW1 7614   3.595   2.913   4.521
 2532SOL    HW2 7615   3.605   2.939   4.682
 2533SOL     OW 7616   2.183   2.805   3.966
 2533SOL    HW1 7617   2.265   2.844   3.924
 2533SOL    HW2 7618   2.156   2.723   3.917
 2534SOL     OW 7619   3.320   2.597   4.452
 2534SOL    HW1 7620   3.315   2.532   4.527
 2534SOL    HW2 7621   3.400   2.656   4.465
 2535SOL     OW 7622   2.973   3.638   3.961
 2535SOL    HW1 7623   2.913   3.576   4.011
 2535SOL    HW2 7624   3.004   3.594   3.876
 2536SOL     OW 7625   3.494   3.239   3.805
 2536SOL    HW1 7626   3.462   3.333   3.795
 2536SOL    HW2 7627   3.418   3.176   3.793
 2537SOL     OW 7628   2.326   3.605   4.047
 2537SOL    HW1 7629   2.359   3.644   4.133
 2537SOL    HW2 7630   2.402   3.598   3.982
 2538SOL     OW 7631   3.262   1.969   4.150
 2538SOL    HW1 7632   3.238   1.932   4.060
 2538SOL    HW2 7633   3.361   1.985   4.154
 2539SOL     OW 7634   2.111   3.647   4.965
 2539SOL    HW1 7635   2.168   3.582   5.015
 2539SOL    HW2 7636   2.095   3.614   4.872
 2540SOL     OW 7637   2.802   3.560   4.628
 2540SOL    HW1 7638   2.882   3.503   4.649
 2540SOL    HW2 7639   2.753   3.520   4.551
 2541SOL     OW 7640   2.244   2.562   4.204
 2541SOL    HW1 7641   2.289   2.472   4.201
 2541SOL    HW2 7642   2.150   2.551   4.237
 2542SOL     OW 7643   2.476   1.984   3.841
 2542SOL    HW1 7644   2.574   1.962   3.848
 2542SOL    HW2 7645   2.445   1.967   3.748
 2543SOL     OW 7646   2.665   3.264   4.648
 2543SOL    HW1 7647   2.755   3.278   4.606
 2543SOL    HW2 7648   2.594   3.266   4.577
 2544SOL     OW 7649   2.784   2.365   4.623
 2544SOL    HW1 7650   2.759   2.356   4.527
 2544SOL    HW2 7651   2.832   2.283   4.654
 2545SOL     OW 7652   2.401   1.926   4.236
 2545SOL    HW1 7653   2.320   1.927   4.294
 2545SOL    HW2 7654   2.404   2.009   4.181
 2546SOL     OW 7655   3.296   3.050   3.765
 2546SOL    HW1 7656   3.328   2.974   3.822
 2546SOL    HW2 7657   3.204   3.077   3.795
 2547SOL     OW 7658   2.159   1.897   3.895
 2547SOL    HW1 7659   2.208   1.981   3.874
 2547SOL    HW2 7660   2.221   1.832   3.940
 2548SOL     OW 7661   2.797   2.098   4.204
 2548SOL    HW1 7662   2.749   2.139   4.126
 2548SOL    HW2 7663   2.896   2.096   4.185
 2549SOL     OW 7664   3.089   3.432   4.517
 2549SOL    HW1 7665   3.110   3.506   4.452
 2549SOL    HW2 7666   3.157   3.432   4.590
 2550SOL     OW 7667   2.321   3.014   4.465
 2550SOL    HW1 7668   2.250   2.987   4.530
 2550SOL    HW2 7669   2.295   2.986   4.372
 2551SOL     OW 7670   3.133   3.659   4.315
 2551SOL    HW1 7671   3.177   3.723   4.251
 2551SOL    HW2 7672   3.083   3.711   4.385
 2552SOL     OW 7673   2.894   2.411   3.740
 2552SOL    HW1 7674   2.853   2.493   3.701
 2552SOL    HW2 7675   2.958   2.437   3.813
 2553SOL     OW 7676   2.728   2.316   4.366
 2553SOL    HW1 7677   2.696   2.388   4.304
 2553SOL    HW2 7678   2.752   2.235   4.313
 2554SOL     OW 7679   2.879   1.901   4.477
 2554SOL    HW1 7680   2.807   1.906   4.408
 2554SOL    HW2 7681   2.855   1.832   4.546
 2555SOL     OW 7682   3.291   3.035   4.591
 2555SOL    HW1 7683   3.236   2.951   4.584
 2555SOL    HW2 7684   3.317   3.064   4.499
 2556SOL     OW 7685   3.328   2.452   4.716
 2556SOL    HW1 7686   3.298   2.357   4.723
 2556SOL    HW2 7687   3.401   2.468   4.782
 2557SOL     OW 7688   3.719   2.695   4.101
 2557SOL    HW1 7689   3.761   2.631   4.165
 2557SOL    HW2 7690   3.681   2.644   4.023
 2558SOL     OW 7691   2.350   3.247   3.898
 2558SOL    HW1 7692   2.263   3.232   3.945
 2558SOL    HW2 7693   2.333   3.273   3.803
 2559SOL     OW 7694   3.526   3.142   4.381
 2559SOL    HW1 7695   3.625   3.150   4.395
 2559SOL    HW2 7696   3.481   3.226   4.412
 2560SOL     OW 7697   3.252   2.437   3.802
 2560SOL    HW1 7698   3.198   2.416   3.883
 2560SOL    HW2 7699   3.343   2.396   3.811
 2561SOL     OW 7700   2.389   2.118   4.052
 2561SOL    HW1 7701   2.416   2.059   3.977
 2561SOL    HW2 7702   2.389   2.213   4.021
 2562SOL     OW 7703   2.973   3.057   4.824
 2562SOL    HW1 7704   2.933   3.101   4.905
 2562SOL    HW2 7705   2.932   3.094   4.741
 2563SOL     OW 7706   3.500   2.961   4.803
 2563SOL    HW1 7707   3.505   3.042   4.862
 2563SOL    HW2 7708   3.414   2.963   4.752
 2564SOL     OW 7709   2.567   2.912   4.092
 2564SOL    HW1 7710   2.553   2.919   4.191
 2564SOL    HW2 7711   2.651   2.861   4.074
 2565SOL     OW 7712   2.272   2.675   4.975
 2565SOL    HW1 7713   2.358   2.687   5.025
 2565SOL    HW2 7714   2.230   2.588   5.002
 2566SOL     OW 7715   2.229   2.962   4.225
 2566SOL    HW1 7716   2.222   3.045   4.169
 2566SOL    HW2 7717   2.233   2.882   4.165
 2567SOL     OW 7718   2.428   2.399   4.589
 2567SOL    HW1 7719   2.440   2.465   4.515
 2567SOL    HW2 7720   2.474   2.433   4.672
 2568SOL     OW 7721   3.114   3.210   4.112
 2568SOL    HW1 7722   3.164   3.287   4.152
 2568SOL    HW2 7723   3.019   3.212   4.144
 2569SOL     OW 7724   3.134   3.307   4.866
 2569SOL    HW1 7725   3.181   3.320   4.953
 2569SOL    HW2 7726   3.068   3.233   4.875
 2570SOL     OW 7727   3.444   2.501   4.196
 2570SOL    HW1 7728   3.413   2.562   4.269
 2570SOL    HW2 7729   3.494   2.553   4.127
 2571SOL     OW 7730   2.435   2.732   4.753
 2571SOL    HW1 7731   2.479   2.821   4.744
 2571SOL    HW2 7732   2.372   2.732   4.830
 2572SOL     OW 7733   3.222   2.724   4.769
 2572SOL    HW1 7734   3.147   2.724   4.703
 2572SOL    HW2 7735   3.259   2.632   4.778
 2573SOL     OW 7736   3.071   2.387   3.999
 2573SOL    HW1 7737   3.084   2.303   4.053
 2573SOL    HW2 7738   3.042   2.461   4.059
 2574SOL     OW 7739   2.169   2.075   4.955
 2574SOL    HW1 7740   2.146   2.112   5.045
 2574SOL    HW2 7741   2.139   1.980   4.949
 2575SOL     OW 7742   2.594   2.496   4.788
 2575SOL    HW1 7743   2.653   2.470   4.712
 2575SOL    HW2 7744   2.566   2.592   4.777
 2576SOL     OW 7745   2.169   1.925   4.342
 2576SOL    HW1 7746   2.158   2.019   4.375
 2576SOL    HW2 7747   2.164   1.862   4.419
 2577SOL     OW 7748   3.484   2.229   4.098
 2577SOL    HW1 7749   3.486   2.153   4.162
 2577SOL    HW2 7750   3.436   2.306   4.138
 2578SOL     OW 7751   2.885   2.628   4.690
 2578SOL    HW1 7752   2.900   2.649   4.786
 2578SOL    HW2 7753   2.855   2.533   4.681
 2579SOL     OW 7754   3.402   2.136   3.849
 2579SOL    HW1 7755   3.341   2.061   3.872
 2579SOL    HW2 7756   3.424   2.188   3.932
 2580SOL     OW 7757   3.165   2.700   3.766
 2580SOL    HW1 7758   3.199   2.607   3.781
 2580SOL    HW2 7759   3.183   2.727   3.671
 2581SOL     OW 7760   2.930   3.195   4.573
 2581SOL    HW1 7761   2.937   3.111   4.518
 2581SOL    HW2 7762   2.992   3.264   4.537
 2582SOL     OW 7763   2.181   2.672   4.673
 2582SOL    HW1 7764   2.274   2.708   4.678
 2582SOL    HW2 7765   2.175   2.587   4.725
 2583SOL     OW 7766   2.201   2.371   4.730
 2583SOL    HW1 7767   2.149   2.288   4.713
 2583SOL    HW2 7768   2.278   2.376   4.666
 2584SOL     OW 7769   3.022   2.069   5.201
 2584SOL    HW1 7770   3.022   2.133   5.278
 2584SOL    HW2 7771   3.050   2.117   5.118
 2585SOL     OW 7772   1.870   3.188   3.924
 2585SOL    HW1 7773   1.777   3.209   3.893
 2585SOL    HW2 7774   1.880   3.089   3.937
 2586SOL     OW 7775   1.950   3.663   4.651
 2586SOL    HW1 7776   1.908   3.577   4.624
 2586SOL    HW2 7777   2.044   3.666   4.617
 2587SOL     OW 7778   2.366   3.430   4.634
 2587SOL    HW1 7779   2.432   3.504   4.643
 2587SOL    HW2 7780   2.410   3.351   4.592
 2588SOL     OW 7781   2.864   2.658   4.962
 2588SOL    HW1 7782   2.905   2.626   5.048
 2588SOL    HW2 7783   2.768   2.631   4.959
 2589SOL     OW 7784   1.902   2.406   4.838
 2589SOL    HW1 7785   1.987   2.373   4.797
 2589SOL    HW2 7786   1.915   2.421   4.936
 2590SOL     OW 7787   2.677   2.434   4.049
 2590SOL    HW1 7788   2.684   2.345   4.003
 2590SOL    HW2 7789   2.583   2.468   4.041
 2591SOL     OW 7790   3.519   2.466   4.930
 2591SOL    HW1 7791   3.481   2.397   4.992
 2591SOL    HW2 7792   3.601   2.430   4.886
 2592SOL     OW 7793   2.533   2.326   4.993
 2592SOL    HW1 7794   2.499   2.237   4.963
 2592SOL    HW2 7795   2.559   2.380   4.913
 2593SOL     OW 7796   2.335   2.362   3.915
 2593SOL    HW1 7797   2.396   2.442   3.919
 2593SOL    HW2 7798   2.240   2.393   3.922
 2594SOL     OW 7799   2.021   2.999   5.190
 2594SOL    HW1 7800   2.043   2.938   5.266
 2594SOL    HW2 7801   2.031   2.950   5.104
 2595SOL     OW 7802   3.164   2.717   4.033
 2595SOL    HW1 7803   3.078   2.686   4.075
 2595SOL    HW2 7804   3.160   2.703   3.934
 2596SOL     OW 7805   3.621   3.609   4.878
 2596SOL    HW1 7806   3.682   3.639   4.805
 2596SOL    HW2 7807   3.583   3.520   4.856
 2597SOL     OW 7808   1.945   3.120   4.746
 2597SOL    HW1 7809   1.940   3.119   4.846
 2597SOL    HW2 7810   1.862   3.079   4.708
 2598SOL     OW 7811   3.588   1.997   4.247
 2598SOL    HW1 7812   3.661   1.980   4.180
 2598SOL    HW2 7813   3.557   1.910   4.285
 2599SOL     OW 7814   3.250   3.435   4.201
 2599SOL    HW1 7815   3.317   3.447   4.127
 2599SOL    HW2 7816   3.210   3.524   4.224
 2600SOL     OW 7817   3.142   2.789   4.396
 2600SOL    HW1 7818   3.202   2.708   4.398
 2600SOL    HW2 7819   3.182   2.858   4.336
 2601SOL     OW 7820   2.534   3.478   3.878
 2601SOL    HW1 7821   2.543   3.488   3.779
 2601SOL    HW2 7822   2.494   3.389   3.899
 2602SOL     OW 7823   3.703   2.037   4.687
 2602SOL    HW1 7824   3.742   1.952   4.651
 2602SOL    HW2 7825   3.605   2.039   4.668
 2603SOL     OW 7826   2.125   2.188   4.444
 2603SOL    HW1 7827   2.046   2.239   4.410
 2603SOL    HW2 7828   2.116   2.173   4.542
 2604SOL     OW 7829   3.056   3.474   3.755
 2604SOL    HW1 7830   3.062   3.381   3.792
 2604SOL    HW2 7831   2.997   3.474   3.675
 2605SOL     OW 7832   2.684   2.864   5.096
 2605SOL    HW1 7833   2.724   2.863   5.004
 2605SOL    HW2 7834   2.694   2.956   5.136
 2606SOL     OW 7835   2.778   2.772   4.015
 2606SOL    HW1 7836   2.841   2.810   3.947
 2606SOL    HW2 7837   2.818   2.689   4.054
 2607SOL     OW 7838   3.366   3.469   3.768
 2607SOL    HW1 7839   3.274   3.506   3.775
 2607SOL    HW2 7840   3.404   3.489   3.678
 2608SOL     OW 7841   2.901   2.960   4.420
 2608SOL    HW1 7842   2.831   2.913   4.474
 2608SOL    HW2 7843   2.960   2.892   4.377
 2609SOL     OW 7844   2.876   2.098   4.695
 2609SOL    HW1 7845   2.868   2.062   4.602
 2609SOL    HW2 7846   2.874   2.022   4.760
 2610SOL     OW 7847   2.452   3.349   4.215
 2610SOL    HW1 7848   2.494   3.291   4.145
 2610SOL    HW2 7849   2.408   3.428   4.171
 2611SOL     OW 7850   3.571   2.247   5.105
 2611SOL    HW1 7851   3.644   2.316   5.109
 2611SOL    HW2 7852   3.599   2.172   5.046
 2612SOL     OW 7853   2.117   3.210   4.014
 2612SOL    HW1 7854   2.021   3.211   3.987
 2612SOL    HW2 7855   2.129   3.263   4.098
 2613SOL     OW 7856   1.937   2.207   3.757
 2613SOL    HW1 7857   1.845   2.179   3.728
 2613SOL    HW2 7858   1.968   2.284   3.701
 2614SOL     OW 7859   1.934   2.028   4.042
 2614SOL    HW1 7860   1.917   2.111   3.988
 2614SOL    HW2 7861   2.024   1.991   4.020
 2615SOL     OW 7862   3.045   3.197   3.843
 2615SOL    HW1 7863   2.946   3.186   3.845
 2615SOL    HW2 7864   3.079   3.212   3.936
 2616SOL     OW 7865   3.355   3.629   4.683
 2616SOL    HW1 7866   3.388   3.693   4.614
 2616SOL    HW2 7867   3.421   3.623   4.758
 2617SOL     OW 7868   3.536   2.745   4.978
 2617SOL    HW1 7869   3.509   2.656   4.941
 2617SOL    HW2 7870   3.537   2.813   4.905
 2618SOL     OW 7871   3.087   2.187   4.173
 2618SOL    HW1 7872   3.152   2.113   4.162
 2618SOL    HW2 7873   3.107   2.237   4.257
 2619SOL     OW 7874   2.456   2.607   4.376
 2619SOL    HW1 7875   2.506   2.692   4.357
 2619SOL    HW2 7876   2.368   2.609   4.328
 2620SOL     OW 7877   3.592   2.796   5.241
 2620SOL    HW1 7878   3.630   2.887   5.256
 2620SOL    HW2 7879   3.584   2.779   5.142
 2621SOL     OW 7880   2.721   3.236   3.740
 2621SOL    HW1 7881   2.675   3.251   3.828
 2621SOL    HW2 7882   2.765   3.321   3.710
 2622SOL     OW 7883   2.523   3.652   4.677
 2622SOL    HW1 7884   2.477   3.740   4.664
 2622SOL    HW2 7885   2.622   3.664   4.670
 2623SOL     OW 7886   2.721   2.818   4.585
 2623SOL    HW1 7887   2.775   2.749   4.633
 2623SOL    HW2 7888   2.689   2.887   4.651
 2624SOL     OW 7889   2.945   2.846   3.811
 2624SOL    HW1 7890   2.922   2.899   3.729
 2624SOL    HW2 7891   3.026   2.790   3.792
 2625SOL     OW 7892   3.723   3.431   4.575
 2625SOL    HW1 7893   3.652   3.419   4.505
 2625SOL    HW2 7894   3.724   3.352   4.635
 2626SOL     OW 7895   1.941   3.102   4.377
 2626SOL    HW1 7896   1.940   3.055   4.465
 2626SOL    HW2 7897   2.023   3.074   4.326
 2627SOL     OW 7898   3.686   2.054   4.951
 2627SOL    HW1 7899   3.682   1.964   4.995
 2627SOL    HW2 7900   3.689   2.043   4.852
 2628SOL     OW 7901   2.290   2.286   4.244
 2628SOL    HW1 7902   2.320   2.214   4.182
 2628SOL    HW2 7903   2.251   2.246   4.327
 2629SOL     OW 7904   3.567   3.349   4.828
 2629SOL    HW1 7905   3.474   3.324   4.801
 2629SOL    HW2 7906   3.593   3.299   4.910
 2630SOL     OW 7907   2.674   3.448   4.411
 2630SOL    HW1 7908   2.706   3.458   4.317
 2630SOL    HW2 7909   2.595   3.386   4.413
 2631SOL     OW 7910   3.286   2.076   4.836
 2631SOL    HW1 7911   3.338   2.011   4.891
 2631SOL    HW2 7912   3.237   2.139   4.897
 2632SOL     OW 7913   2.863   1.896   4.878
 2632SOL    HW1 7914   2.800   1.824   4.847
 2632SOL    HW2 7915   2.956   1.860   4.878
 2633SOL     OW 7916   2.632   3.192   4.025
 2633SOL    HW1 7917   2.586   3.105   4.042
 2633SOL    HW2 7918   2.723   3.189   4.066
 2634SOL     OW 7919   3.214   1.914   3.892
 2634SOL    HW1 7920   3.249   1.873   3.808
 2634SOL    HW2 7921   3.124   1.876   3.912
 2635SOL     OW 7922   3.162   2.315   4.415
 2635SOL    HW1 7923   3.103   2.395   4.419
 2635SOL    HW2 7924   3.177   2.280   4.508
 2636SOL     OW 7925   3.455   2.083   4.606
 2636SOL    HW1 7926   3.371   2.082   4.660
 2636SOL    HW2 7927   3.457   2.166   4.550
 2637SOL     OW 7928   1.901   2.939   4.024
 2637SOL    HW1 7929   2.000   2.928   4.015
 2637SOL    HW2 7930   1.861   2.853   4.056
 2638SOL     OW 7931   2.737   3.508   4.061
 2638SOL    HW1 7932   2.660   3.473   4.007
 2638SOL    HW2 7933   2.705   3.579   4.123
 2639SOL     OW 7934   2.092   4.352   0.113
 2639SOL    HW1 7935   1.999   4.350   0.150
 2639SOL    HW2 7936   2.093   4.313   0.021
 2640SOL     OW 7937   2.087   3.999   0.996
 2640SOL    HW1 7938   2.122   3.982   1.088
 2640SOL    HW2 7939   1.999   3.954   0.984
 2641SOL     OW 7940   1.881   4.092   0.647
 2641SOL    HW1 7941   1.799   4.135   0.686
 2641SOL    HW2 7942   1.853   4.019   0.584
 2642SOL     OW 7943   2.997   4.427   0.717
 2642SOL    HW1 7944   3.054   4.505   0.692
 2642SOL    HW2 7945   2.937   4.453   0.793
 2643SOL     OW 7946   3.617   4.331   0.231
 2643SOL    HW1 7947   3.605   4.318   0.132
 2643SOL    HW2 7948   3.587   4.250   0.280
 2644SOL     OW 7949   2.630   4.868   1.023
 2644SOL    HW1 7950   2.552   4.885   1.083
 2644SOL    HW2 7951   2.664   4.955   0.987
 2645SOL     OW 7952   2.712   4.522   1.823
 2645SOL    HW1 7953   2.708   4.598   1.888
 2645SOL    HW2 7954   2.734   4.558   1.732
 2646SOL     OW 7955   2.547   4.736   0.665
 2646SOL    HW1 7956   2.616   4.720   0.735
 2646SOL    HW2 7957   2.474   4.793   0.703
 2647SOL     OW 7958   2.300   4.116   1.499
 2647SOL    HW1 7959   2.382   4.060   1.508
 2647SOL    HW2 7960   2.219   4.058   1.503
 2648SOL     OW 7961   3.465   4.171   0.737
 2648SOL    HW1 7962   3.391   4.217   0.687
 2648SOL    HW2 7963   3.516   4.239   0.790
 2649SOL     OW 7964   2.102   4.815   0.886
 2649SOL    HW1 7965   2.116   4.731   0.938
 2649SOL    HW2 7966   2.047   4.879   0.941
 2650SOL     OW 7967   2.468   4.688   0.123
 2650SOL    HW1 7968   2.475   4.772   0.069
 2650SOL    HW2 7969   2.514   4.701   0.211
 2651SOL     OW 7970   3.456   3.838   1.480
 2651SOL    HW1 7971   3.438   3.905   1.408
 2651SOL    HW2 7972   3.453   3.884   1.569
 2652SOL     OW 7973   1.984   4.367   0.563
 2652SOL    HW1 7974   1.939   4.279   0.580
 2652SOL    HW2 7975   1.983   4.421   0.647
 2653SOL     OW 7976   3.551   4.646   0.612
 2653SOL    HW1 7977   3.646   4.617   0.620
 2653SOL    HW2 7978   3.543   4.711   0.537
 2654SOL     OW 7979   3.503   4.832   0.432
 2654SOL    HW1 7980   3.589   4.834   0.380
 2654SOL    HW2 7981   3.517   4.879   0.520
 2655SOL     OW 7982   1.975   4.461   1.597
 2655SOL    HW1 7983   2.063   4.448   1.642
 2655SOL    HW2 7984   1.962   4.558   1.575
 2656SOL     OW 7985   2.475   5.089   0.726
 2656SOL    HW1 7986   2.426   5.002   0.735
 2656SOL    HW2 7987   2.452   5.132   0.639
 2657SOL     OW 7988   3.155   4.952   1.423
 2657SOL    HW1 7989   3.192   4.879   1.365
 2657SOL    HW2 7990   3.207   4.957   1.508
 2658SOL     OW 7991   2.671   3.728   0.502
 2658SOL    HW1 7992   2.711   3.819   0.493
 2658SOL    HW2 7993   2.571   3.736   0.508
 2659SOL     OW 7994   2.059   4.700   1.264
 2659SOL    HW1 7995   2.148   4.655   1.250
 2659SOL    HW2 7996   1.986   4.635   1.245
 2660SOL     OW 7997   3.387   4.723   0.190
 2660SOL    HW1 7998   3.324   4.647   0.203
 2660SOL    HW2 7999   3.435   4.741   0.276
 2661SOL     OW 8000   2.179   3.975   1.801
 2661SOL    HW1 8001   2.250   4.046   1.807
 2661SOL    HW2 8002   2.091   4.014   1.829
 2662SOL     OW 8003   2.460   4.453   0.270
 2662SOL    HW1 8004   2.484   4.522   0.202
 2662SOL    HW2 8005   2.382   4.486   0.324
 2663SOL     OW 8006   3.143   4.069   0.944
 2663SOL    HW1 8007   3.057   4.019   0.931
 2663SOL    HW2 8008   3.205   4.015   1.000
 2664SOL     OW 8009   2.669   4.329   1.465
 2664SOL    HW1 8010   2.622   4.326   1.554
 2664SOL    HW2 8011   2.618   4.274   1.399
 2665SOL     OW 8012   3.256   4.193   1.674
 2665SOL    HW1 8013   3.236   4.236   1.762
 2665SOL    HW2 8014   3.334   4.131   1.683
 2666SOL     OW 8015   2.835   4.614   1.572
 2666SOL    HW1 8016   2.881   4.530   1.543
 2666SOL    HW2 8017   2.779   4.648   1.497
 2667SOL     OW 8018   2.853   4.134   1.242
 2667SOL    HW1 8019   2.776   4.168   1.296
 2667SOL    HW2 8020   2.819   4.083   1.163
 2668SOL     OW 8021   2.903   4.425   0.429
 2668SOL    HW1 8022   2.929   4.421   0.525
 2668SOL    HW2 8023   2.818   4.374   0.415
 2669SOL     OW 8024   1.938   4.535   0.789
 2669SOL    HW1 8025   2.037   4.523   0.798
 2669SOL    HW2 8026   1.914   4.630   0.810
 2670SOL     OW 8027   2.727   4.072   0.195
 2670SOL    HW1 8028   2.786   4.135   0.146
 2670SOL    HW2 8029   2.746   3.978   0.166
 2671SOL     OW 8030   3.581   4.309   1.831
 2671SOL    HW1 8031   3.555   4.398   1.795
 2671SOL    HW2 8032   3.579   4.241   1.758
 2672SOL     OW 8033   3.224   4.868   0.545
 2672SOL    HW1 8034   3.307   4.839   0.497
 2672SOL    HW2 8035   3.175   4.935   0.489
 2673SOL     OW 8036   2.412   3.920   0.885
 2673SOL    HW1 8037   2.407   3.915   0.985
 2673SOL    HW2 8038   2.414   4.016   0.856
 2674SOL     OW 8039   3.657   4.790   0.873
 2674SOL    HW1 8040   3.595   4.775   0.797
 2674SOL    HW2 8041   3.605   4.801   0.958
 2675SOL     OW 8042   2.183   4.667   0.242
 2675SOL    HW1 8043   2.265   4.706   0.200
 2675SOL    HW2 8044   2.156   4.585   0.193
 2676SOL     OW 8045   3.320   4.459   0.728
 2676SOL    HW1 8046   3.315   4.394   0.803
 2676SOL    HW2 8047   3.400   4.518   0.741
 2677SOL     OW 8048   2.064   4.009   1.498
 2677SOL    HW1 8049   1.984   4.069   1.485
 2677SOL    HW2 8050   2.054   3.960   1.584
 2678SOL     OW 8051   3.262   3.831   0.426
 2678SOL    HW1 8052   3.238   3.794   0.336
 2678SOL    HW2 8053   3.361   3.847   0.430
 2679SOL     OW 8054   2.244   4.424   0.480
 2679SOL    HW1 8055   2.289   4.334   0.477
 2679SOL    HW2 8056   2.150   4.413   0.513
 2680SOL     OW 8057   3.409   3.946   1.729
 2680SOL    HW1 8058   3.404   3.983   1.821
 2680SOL    HW2 8059   3.337   3.877   1.717
 2681SOL     OW 8060   2.476   3.846   0.117
 2681SOL    HW1 8061   2.574   3.824   0.124
 2681SOL    HW2 8062   2.445   3.829   0.024
 2682SOL     OW 8063   2.643   3.988   1.749
 2682SOL    HW1 8064   2.710   3.927   1.792
 2682SOL    HW2 8065   2.570   4.007   1.814
 2683SOL     OW 8066   3.213   4.314   1.433
 2683SOL    HW1 8067   3.241   4.271   1.518
 2683SOL    HW2 8068   3.238   4.410   1.434
 2684SOL     OW 8069   2.784   4.227   0.899
 2684SOL    HW1 8070   2.759   4.218   0.803
 2684SOL    HW2 8071   2.832   4.145   0.930
 2685SOL     OW 8072   2.401   3.788   0.512
 2685SOL    HW1 8073   2.320   3.789   0.570
 2685SOL    HW2 8074   2.404   3.871   0.457
 2686SOL     OW 8075   2.159   3.759   0.171
 2686SOL    HW1 8076   2.208   3.843   0.150
 2686SOL    HW2 8077   2.221   3.694   0.216
 2687SOL     OW 8078   2.797   3.960   0.480
 2687SOL    HW1 8079   2.749   4.001   0.402
 2687SOL    HW2 8080   2.896   3.958   0.461
 2688SOL     OW 8081   2.938   4.407   1.464
 2688SOL    HW1 8082   2.858   4.346   1.467
 2688SOL    HW2 8083   3.019   4.354   1.440
 2689SOL     OW 8084   2.321   4.876   0.741
 2689SOL    HW1 8085   2.250   4.849   0.806
 2689SOL    HW2 8086   2.295   4.848   0.648
 2690SOL     OW 8087   2.894   4.273   0.016
 2690SOL    HW1 8088   2.853   4.355  -0.023
 2690SOL    HW2 8089   2.958   4.299   0.089
 2691SOL     OW 8090   1.940   4.280   1.386
 2691SOL    HW1 8091   2.032   4.279   1.345
 2691SOL    HW2 8092   1.934   4.354   1.453
 2692SOL     OW 8093   2.423   3.946   1.147
 2692SOL    HW1 8094   2.461   3.862   1.184
 2692SOL    HW2 8095   2.335   3.965   1.191
 2693SOL     OW 8096   2.728   4.178   0.642
 2693SOL    HW1 8097   2.696   4.250   0.580
 2693SOL    HW2 8098   2.752   4.097   0.589
 2694SOL     OW 8099   2.879   3.763   0.753
 2694SOL    HW1 8100   2.807   3.768   0.684
 2694SOL    HW2 8101   2.855   3.694   0.822
 2695SOL     OW 8102   3.291   4.897   0.867
 2695SOL    HW1 8103   3.236   4.813   0.860
 2695SOL    HW2 8104   3.317   4.926   0.775
 2696SOL     OW 8105   3.328   4.314   0.992
 2696SOL    HW1 8106   3.298   4.219   0.999
 2696SOL    HW2 8107   3.401   4.330   1.058
 2697SOL     OW 8108   3.719   4.557   0.377
 2697SOL    HW1 8109   3.761   4.493   0.441
 2697SOL    HW2 8110   3.681   4.506   0.299
 2698SOL     OW 8111   3.252   4.299   0.078
 2698SOL    HW1 8112   3.198   4.278   0.159
 2698SOL    HW2 8113   3.343   4.258   0.087
 2699SOL     OW 8114   2.389   3.980   0.328
 2699SOL    HW1 8115   2.416   3.921   0.253
 2699SOL    HW2 8116   2.389   4.075   0.297
 2700SOL     OW 8117   3.616   4.947   1.588
 2700SOL    HW1 8118   3.707   4.908   1.575
 2700SOL    HW2 8119   3.624   5.043   1.612
 2701SOL     OW 8120   3.500   4.823   1.079
 2701SOL    HW1 8121   3.505   4.904   1.138
 2701SOL    HW2 8122   3.414   4.825   1.028
 2702SOL     OW 8123   2.777   3.813   1.402
 2702SOL    HW1 8124   2.802   3.793   1.307
 2702SOL    HW2 8125   2.849   3.869   1.444
 2703SOL     OW 8126   2.842   4.840   1.719
 2703SOL    HW1 8127   2.743   4.846   1.729
 2703SOL    HW2 8128   2.865   4.760   1.663
 2704SOL     OW 8129   2.567   4.774   0.368
 2704SOL    HW1 8130   2.553   4.781   0.467
 2704SOL    HW2 8131   2.651   4.723   0.350
 2705SOL     OW 8132   2.272   4.537   1.251
 2705SOL    HW1 8133   2.358   4.549   1.301
 2705SOL    HW2 8134   2.230   4.450   1.278
 2706SOL     OW 8135   3.136   4.110   1.262
 2706SOL    HW1 8136   3.157   4.184   1.326
 2706SOL    HW2 8137   3.047   4.127   1.219
 2707SOL     OW 8138   2.229   4.824   0.501
 2707SOL    HW1 8139   2.222   4.907   0.445
 2707SOL    HW2 8140   2.233   4.744   0.441
 2708SOL     OW 8141   2.428   4.261   0.865
 2708SOL    HW1 8142   2.440   4.327   0.791
 2708SOL    HW2 8143   2.474   4.295   0.948
 2709SOL     OW 8144   3.444   4.363   0.472
 2709SOL    HW1 8145   3.413   4.424   0.545
 2709SOL    HW2 8146   3.494   4.415   0.403
 2710SOL     OW 8147   2.264   4.475   1.598
 2710SOL    HW1 8148   2.332   4.530   1.551
 2710SOL    HW2 8149   2.304   4.387   1.625
 2711SOL     OW 8150   3.449   4.503   1.670
 2711SOL    HW1 8151   3.357   4.541   1.665
 2711SOL    HW2 8152   3.509   4.550   1.605
 2712SOL     OW 8153   2.875   3.829   1.770
 2712SOL    HW1 8154   2.881   3.914   1.718
 2712SOL    HW2 8155   2.907   3.753   1.713
 2713SOL     OW 8156   2.366   3.774   1.740
 2713SOL    HW1 8157   2.324   3.717   1.670
 2713SOL    HW2 8158   2.300   3.843   1.772
 2714SOL     OW 8159   2.435   4.594   1.029
 2714SOL    HW1 8160   2.479   4.683   1.020
 2714SOL    HW2 8161   2.372   4.594   1.106
 2715SOL     OW 8162   3.222   4.586   1.045
 2715SOL    HW1 8163   3.147   4.586   0.979
 2715SOL    HW2 8164   3.259   4.494   1.054
 2716SOL     OW 8165   3.071   4.249   0.275
 2716SOL    HW1 8166   3.084   4.165   0.329
 2716SOL    HW2 8167   3.042   4.323   0.335
 2717SOL     OW 8168   2.169   3.937   1.231
 2717SOL    HW1 8169   2.146   3.974   1.321
 2717SOL    HW2 8170   2.139   3.842   1.225
 2718SOL     OW 8171   2.594   4.358   1.064
 2718SOL    HW1 8172   2.653   4.332   0.988
 2718SOL    HW2 8173   2.566   4.454   1.053
 2719SOL     OW 8174   3.590   4.659   1.854
 2719SOL    HW1 8175   3.544   4.652   1.765
 2719SOL    HW2 8176   3.528   4.703   1.920
 2720SOL     OW 8177   2.169   3.787   0.618
 2720SOL    HW1 8178   2.158   3.881   0.651
 2720SOL    HW2 8179   2.164   3.724   0.695
 2721SOL     OW 8180   3.484   4.091   0.374
 2721SOL    HW1 8181   3.486   4.015   0.438
 2721SOL    HW2 8182   3.436   4.168   0.414
 2722SOL     OW 8183   2.885   4.490   0.966
 2722SOL    HW1 8184   2.900   4.511   1.062
 2722SOL    HW2 8185   2.855   4.395   0.957
 2723SOL     OW 8186   2.212   4.622   1.804
 2723SOL    HW1 8187   2.288   4.666   1.852
 2723SOL    HW2 8188   2.247   4.575   1.722
 2724SOL     OW 8189   3.402   3.998   0.125
 2724SOL    HW1 8190   3.341   3.923   0.148
 2724SOL    HW2 8191   3.424   4.050   0.208
 2725SOL     OW 8192   3.165   4.562   0.042
 2725SOL    HW1 8193   3.199   4.469   0.057
 2725SOL    HW2 8194   3.183   4.589  -0.053
 2726SOL     OW 8195   2.181   4.534   0.949
 2726SOL    HW1 8196   2.274   4.570   0.954
 2726SOL    HW2 8197   2.175   4.449   1.001
 2727SOL     OW 8198   2.201   4.233   1.006
 2727SOL    HW1 8199   2.149   4.150   0.989
 2727SOL    HW2 8200   2.278   4.238   0.942
 2728SOL     OW 8201   3.000   4.104   1.678
 2728SOL    HW1 8202   2.955   4.167   1.742
 2728SOL    HW2 8203   3.093   4.135   1.661
 2729SOL     OW 8204   3.022   3.931   1.477
 2729SOL    HW1 8205   3.022   3.995   1.554
 2729SOL    HW2 8206   3.050   3.979   1.394
 2730SOL     OW 8207   2.864   4.520   1.238
 2730SOL    HW1 8208   2.905   4.488   1.324
 2730SOL    HW2 8209   2.768   4.493   1.235
 2731SOL     OW 8210   1.902   4.268   1.114
 2731SOL    HW1 8211   1.987   4.235   1.073
 2731SOL    HW2 8212   1.915   4.283   1.212
 2732SOL     OW 8213   2.051   4.244   1.722
 2732SOL    HW1 8214   2.110   4.204   1.652
 2732SOL    HW2 8215   1.993   4.315   1.681
 2733SOL     OW 8216   3.231   4.674   1.660
 2733SOL    HW1 8217   3.270   4.763   1.680
 2733SOL    HW2 8218   3.241   4.654   1.563
 2734SOL     OW 8219   2.677   4.296   0.325
 2734SOL    HW1 8220   2.684   4.207   0.279
 2734SOL    HW2 8221   2.583   4.330   0.317
 2735SOL     OW 8222   3.519   4.328   1.206
 2735SOL    HW1 8223   3.481   4.259   1.268
 2735SOL    HW2 8224   3.601   4.292   1.162
 2736SOL     OW 8225   2.533   4.188   1.269
 2736SOL    HW1 8226   2.499   4.099   1.239
 2736SOL    HW2 8227   2.559   4.242   1.189
 2737SOL     OW 8228   2.335   4.224   0.191
 2737SOL    HW1 8229   2.396   4.304   0.195
 2737SOL    HW2 8230   2.240   4.255   0.198
 2738SOL     OW 8231   2.021   4.861   1.466
 2738SOL    HW1 8232   2.043   4.800   1.542
 2738SOL    HW2 8233   2.031   4.812   1.380
 2739SOL     OW 8234   3.209   4.783   1.234
 2739SOL    HW1 8235   3.233   4.720   1.160
 2739SOL    HW2 8236   3.119   4.823   1.216
 2740SOL     OW 8237   3.164   4.579   0.309
 2740SOL    HW1 8238   3.078   4.548   0.351
 2740SOL    HW2 8239   3.160   4.565   0.210
 2741SOL     OW 8240   2.765   3.810   0.133
 2741SOL    HW1 8241   2.816   3.811   0.047
 2741SOL    HW2 8242   2.821   3.768   0.204
 2742SOL     OW 8243   3.588   3.859   0.523
 2742SOL    HW1 8244   3.661   3.842   0.456
 2742SOL    HW2 8245   3.557   3.772   0.561
 2743SOL     OW 8246   3.142   4.651   0.672
 2743SOL    HW1 8247   3.202   4.570   0.674
 2743SOL    HW2 8248   3.182   4.720   0.612
 2744SOL     OW 8249   3.703   3.899   0.963
 2744SOL    HW1 8250   3.742   3.814   0.927
 2744SOL    HW2 8251   3.605   3.901   0.944
 2745SOL     OW 8252   2.125   4.050   0.720
 2745SOL    HW1 8253   2.046   4.101   0.686
 2745SOL    HW2 8254   2.116   4.035   0.818
 2746SOL     OW 8255   2.684   4.726   1.372
 2746SOL    HW1 8256   2.724   4.725   1.280
 2746SOL    HW2 8257   2.694   4.818   1.412
 2747SOL     OW 8258   2.778   4.634   0.291
 2747SOL    HW1 8259   2.841   4.672   0.223
 2747SOL    HW2 8260   2.818   4.551   0.330
 2748SOL     OW 8261   2.234   5.012   1.490
 2748SOL    HW1 8262   2.221   5.105   1.456
 2748SOL    HW2 8263   2.150   4.960   1.477
 2749SOL     OW 8264   3.476   5.016   1.289
 2749SOL    HW1 8265   3.536   5.019   1.369
 2749SOL    HW2 8266   3.401   5.080   1.302
 2750SOL     OW 8267   2.901   4.822   0.696
 2750SOL    HW1 8268   2.831   4.775   0.750
 2750SOL    HW2 8269   2.960   4.754   0.653
 2751SOL     OW 8270   2.876   3.960   0.971
 2751SOL    HW1 8271   2.868   3.924   0.878
 2751SOL    HW2 8272   2.874   3.884   1.036
 2752SOL     OW 8273   3.571   4.109   1.381
 2752SOL    HW1 8274   3.644   4.178   1.385
 2752SOL    HW2 8275   3.599   4.034   1.322
 2753SOL     OW 8276   1.967   4.737   1.726
 2753SOL    HW1 8277   1.890   4.704   1.780
 2753SOL    HW2 8278   2.052   4.707   1.768
 2754SOL     OW 8279   2.534   3.927   1.489
 2754SOL    HW1 8280   2.624   3.911   1.449
 2754SOL    HW2 8281   2.542   3.932   1.588
 2755SOL     OW 8282   3.302   4.580   1.398
 2755SOL    HW1 8283   3.245   4.632   1.335
 2755SOL    HW2 8284   3.398   4.592   1.374
 2756SOL     OW 8285   1.934   3.890   0.318
 2756SOL    HW1 8286   1.917   3.973   0.264
 2756SOL    HW2 8287   2.024   3.853   0.296
 2757SOL     OW 8288   2.475   4.566   1.431
 2757SOL    HW1 8289   2.531   4.647   1.414
 2757SOL    HW2 8290   2.534   4.486   1.434
 2758SOL     OW 8291   2.578   4.289   1.708
 2758SOL    HW1 8292   2.597   4.354   1.782
 2758SOL    HW2 8293   2.638   4.209   1.717
 2759SOL     OW 8294   3.312   4.944   1.633
 2759SOL    HW1 8295   3.303   4.934   1.732
 2759SOL    HW2 8296   3.408   4.937   1.607
 2760SOL     OW 8297   3.536   4.607   1.254
 2760SOL    HW1 8298   3.509   4.518   1.217
 2760SOL    HW2 8299   3.537   4.675   1.181
 2761SOL     OW 8300   3.087   4.049   0.449
 2761SOL    HW1 8301   3.152   3.975   0.438
 2761SOL    HW2 8302   3.107   4.099   0.533
 2762SOL     OW 8303   2.456   4.469   0.652
 2762SOL    HW1 8304   2.506   4.554   0.633
 2762SOL    HW2 8305   2.368   4.471   0.604
 2763SOL     OW 8306   3.639   4.066   1.642
 2763SOL    HW1 8307   3.622   4.097   1.548
 2763SOL    HW2 8308   3.555   4.029   1.680
 2764SOL     OW 8309   3.592   4.658   1.517
 2764SOL    HW1 8310   3.630   4.749   1.532
 2764SOL    HW2 8311   3.584   4.641   1.418
 2765SOL     OW 8312   2.721   4.680   0.861
 2765SOL    HW1 8313   2.775   4.611   0.909
 2765SOL    HW2 8314   2.689   4.749   0.927
 2766SOL     OW 8315   2.945   4.708   0.087
 2766SOL    HW1 8316   2.922   4.761   0.005
 2766SOL    HW2 8317   3.026   4.652   0.068
 2767SOL     OW 8318   1.941   4.964   0.653
 2767SOL    HW1 8319   1.940   4.917   0.741
 2767SOL    HW2 8320   2.023   4.936   0.602
 2768SOL     OW 8321   3.686   3.916   1.227
 2768SOL    HW1 8322   3.682   3.826   1.271
 2768SOL    HW2 8323   3.689   3.905   1.128
 2769SOL     OW 8324   2.290   4.148   0.520
 2769SOL    HW1 8325   2.320   4.076   0.458
 2769SOL    HW2 8326   2.251   4.108   0.603
 2770SOL     OW 8327   2.179   4.271   1.280
 2770SOL    HW1 8328   2.217   4.212   1.352
 2770SOL    HW2 8329   2.219   4.245   1.192
 2771SOL     OW 8330   3.286   3.938   1.112
 2771SOL    HW1 8331   3.338   3.873   1.167
 2771SOL    HW2 8332   3.237   4.001   1.173
 2772SOL     OW 8333   2.863   3.758   1.154
 2772SOL    HW1 8334   2.800   3.686   1.123
 2772SOL    HW2 8335   2.956   3.722   1.154
 2773SOL     OW 8336   2.632   5.054   0.301
 2773SOL    HW1 8337   2.586   4.967   0.318
 2773SOL    HW2 8338   2.723   5.051   0.342
 2774SOL     OW 8339   3.214   3.776   0.168
 2774SOL    HW1 8340   3.249   3.735   0.084
 2774SOL    HW2 8341   3.124   3.738   0.188
 2775SOL     OW 8342   3.162   4.177   0.691
 2775SOL    HW1 8343   3.103   4.257   0.695
 2775SOL    HW2 8344   3.177   4.142   0.784
 2776SOL     OW 8345   3.455   3.945   0.882
 2776SOL    HW1 8346   3.371   3.944   0.936
 2776SOL    HW2 8347   3.457   4.028   0.826
 2777SOL     OW 8348   2.092   4.352   1.975
 2777SOL    HW1 8349   1.999   4.350   2.012
 2777SOL    HW2 8350   2.093   4.313   1.883
 2778SOL     OW 8351   2.087   3.999   2.858
 2778SOL    HW1 8352   2.122   3.982   2.950
 2778SOL    HW2 8353   1.999   3.954   2.846
 2779SOL     OW 8354   1.881   4.092   2.509
 2779SOL    HW1 8355   1.799   4.135   2.548
 2779SOL    HW2 8356   1.853   4.019   2.446
 2780SOL     OW 8357   2.997   4.427   2.579
 2780SOL    HW1 8358   3.054   4.505   2.554
 2780SOL    HW2 8359   2.937   4.453   2.655
 2781SOL     OW 8360   3.617   4.331   2.093
 2781SOL    HW1 8361   3.605   4.318   1.994
 2781SOL    HW2 8362   3.587   4.250   2.142
 2782SOL     OW 8363   2.630   4.868   2.885
 2782SOL    HW1 8364   2.552   4.885   2.945
 2782SOL    HW2 8365   2.664   4.955   2.849
 2783SOL     OW 8366   2.712   4.522   3.685
 2783SOL    HW1 8367   2.708   4.598   3.750
 2783SOL    HW2 8368   2.734   4.558   3.594
 2784SOL     OW 8369   2.547   4.736   2.527
 2784SOL    HW1 8370   2.616   4.720   2.597
 2784SOL    HW2 8371   2.474   4.793   2.565
 2785SOL     OW 8372   2.300   4.116   3.361
 2785SOL    HW1 8373   2.382   4.060   3.370
 2785SOL    HW2 8374   2.219   4.058   3.365
 2786SOL     OW 8375   3.465   4.171   2.599
 2786SOL    HW1 8376   3.391   4.217   2.549
 2786SOL    HW2 8377   3.516   4.239   2.652
 2787SOL     OW 8378   2.102   4.815   2.748
 2787SOL    HW1 8379   2.116   4.731   2.800
 2787SOL    HW2 8380   2.047   4.879   2.803
 2788SOL     OW 8381   2.468   4.688   1.985
 2788SOL    HW1 8382   2.475   4.772   1.931
 2788SOL    HW2 8383   2.514   4.701   2.073
 2789SOL     OW 8384   3.456   3.838   3.342
 2789SOL    HW1 8385   3.438   3.905   3.270
 2789SOL    HW2 8386   3.453   3.884   3.431
 2790SOL     OW 8387   1.984   4.367   2.425
 2790SOL    HW1 8388   1.939   4.279   2.442
 2790SOL    HW2 8389   1.983   4.421   2.509
 2791SOL     OW 8390   3.551   4.646   2.474
 2791SOL    HW1 8391   3.646   4.617   2.482
 2791SOL    HW2 8392   3.543   4.711   2.399
 2792SOL     OW 8393   3.503   4.832   2.294
 2792SOL    HW1 8394   3.589   4.834   2.242
 2792SOL    HW2 8395   3.517   4.879   2.382
 2793SOL     OW 8396   1.975   4.461   3.459
 2793SOL    HW1 8397   2.063   4.448   3.504
 2793SOL    HW2 8398   1.962   4.558   3.437
 2794SOL     OW 8399   2.475   5.089   2.588
 2794SOL    HW1 8400   2.426   5.002   2.597
 2794SOL    HW2 8401   2.452   5.132   2.501
 2795SOL     OW 8402   3.155   4.952   3.285
 2795SOL    HW1 8403   3.192   4.879   3.227
 2795SOL    HW2 8404   3.207   4.957   3.370
 2796SOL     OW 8405   2.671   3.728   2.364
 2796SOL    HW1 8406   2.711   3.819   2.355
 2796SOL    HW2 8407   2.571   3.736   2.370
 2797SOL     OW 8408   2.059   4.700   3.126
 2797SOL    HW1 8409   2.148   4.655   3.112
 2797SOL    HW2 8410   1.986   4.635   3.107
 2798SOL     OW 8411   3.387   4.723   2.052
 2798SOL    HW1 8412   3.324   4.647   2.065
 2798SOL    HW2 8413   3.435   4.741   2.138
 2799SOL     OW 8414   2.179   3.975   3.663
 2799SOL    HW1 8415   2.250   4.046   3.669
 2799SOL    HW2 8416   2.091   4.014   3.691
 2800SOL     OW 8417   2.460   4.453   2.132
 2800SOL    HW1 8418   2.484   4.522   2.064
 2800SOL    HW2 8419   2.382   4.486   2.186
 2801SOL     OW 8420   3.143   4.069   2.806
 2801SOL    HW1 8421   3.057   4.019   2.793
 2801SOL    HW2 8422   3.205   4.015   2.862
 2802SOL     OW 8423   2.669   4.329   3.327
 2802SOL    HW1 8424   2.622   4.326   3.416
 2802SOL    HW2 8425   2.618   4.274   3.261
 2803SOL     OW 8426   3.256   4.193   3.536
 2803SOL    HW1 8427   3.236   4.236   3.624
 2803SOL    HW2 8428   3.334   4.131   3.545
 2804SOL     OW 8429   2.835   4.614   3.434
 2804SOL    HW1 8430   2.881   4.530   3.405
 2804SOL    HW2 8431   2.779   4.648   3.359
 2805SOL     OW 8432   2.853   4.134   3.104
 2805SOL    HW1 8433   2.776   4.168   3.158
 2805SOL    HW2 8434   2.819   4.083   3.025
 2806SOL     OW 8435   2.903   4.425   2.291
 2806SOL    HW1 8436   2.929   4.421   2.387
 2806SOL    HW2 8437   2.818   4.374   2.277
 2807SOL     OW 8438   1.938   4.535   2.651
 2807SOL    HW1 8439   2.037   4.523   2.660
 2807SOL    HW2 8440   1.914   4.630   2.672
 2808SOL     OW 8441   2.727   4.072   2.057
 2808SOL    HW1 8442   2.786   4.135   2.008
 2808SOL    HW2 8443   2.746   3.978   2.028
 2809SOL     OW 8444   3.581   4.309   3.693
 2809SOL    HW1 8445   3.555   4.398   3.657
 2809SOL    HW2 8446   3.579   4.241   3.620
 2810SOL     OW 8447   3.224   4.868   2.407
 2810SOL    HW1 8448   3.307   4.839   2.359
 2810SOL    HW2 8449   3.175   4.935   2.351
 2811SOL     OW 8450   2.412   3.920   2.747
 2811SOL    HW1 8451   2.407   3.915   2.847
 2811SOL    HW2 8452   2.414   4.016   2.718
 2812SOL     OW 8453   3.657   4.790   2.735
 2812SOL    HW1 8454   3.595   4.775   2.659
 2812SOL    HW2 8455   3.605   4.801   2.820
 2813SOL     OW 8456   2.183   4.667   2.104
 2813SOL    HW1 8457   2.265   4.706   2.062
 2813SOL    HW2 8458   2.156   4.585   2.055
 2814SOL     OW 8459   3.320   4.459   2.590
 2814SOL    HW1 8460   3.315   4.394   2.665
 2814SOL    HW2 8461   3.400   4.518   2.603
 2815SOL     OW 8462   2.064   4.009   3.360
 2815SOL    HW1 8463   1.984   4.069   3.347
 2815SOL    HW2 8464   2.054   3.960   3.446
 2816SOL     OW 8465   3.262   3.831   2.288
 2816SOL    HW1 8466   3.238   3.794   2.198
 2816SOL    HW2 8467   3.361   3.847   2.292
 2817SOL     OW 8468   2.244   4.424   2.342
 2817SOL    HW1 8469   2.289   4.334   2.339
 2817SOL    HW2 8470   2.150   4.413   2.375
 2818SOL     OW 8471   3.409   3.946   3.591
 2818SOL    HW1 8472   3.404   3.983   3.683
 2818SOL    HW2 8473   3.337   3.877   3.579
 2819SOL     OW 8474   2.476   3.846   1.979
 2819SOL    HW1 8475   2.574   3.824   1.986
 2819SOL    HW2 8476   2.445   3.829   1.886
 2820SOL     OW 8477   2.643   3.988   3.611
 2820SOL    HW1 8478   2.710   3.927   3.654
 2820SOL    HW2 8479   2.570   4.007   3.676
 2821SOL     OW 8480   3.213   4.314   3.295
 2821SOL    HW1 8481   3.241   4.271   3.380
 2821SOL    HW2 8482   3.238   4.410   3.296
 2822SOL     OW 8483   2.784   4.227   2.761
 2822SOL    HW1 8484   2.759   4.218   2.665
 2822SOL    HW2 8485   2.832   4.145   2.792
 2823SOL     OW 8486   2.401   3.788   2.374
 2823SOL    HW1 8487   2.320   3.789   2.432
 2823SOL    HW2 8488   2.404   3.871   2.319
 2824SOL     OW 8489   2.159   3.759   2.033
 2824SOL    HW1 8490   2.208   3.843   2.012
 2824SOL    HW2 8491   2.221   3.694   2.078
 2825SOL     OW 8492   2.797   3.960   2.342
 2825SOL    HW1 8493   2.749   4.001   2.264
 2825SOL    HW2 8494   2.896   3.958   2.323
 2826SOL     OW 8495   2.938   4.407   3.326
 2826SOL    HW1 8496   2.858   4.346   3.329
 2826SOL    HW2 8497   3.019   4.354   3.302
 2827SOL     OW 8498   2.321   4.876   2.603
 2827SOL    HW1 8499   2.250   4.849   2.668
 2827SOL    HW2 8500   2.295   4.848   2.510
 2828SOL     OW 8501   2.894   4.273   1.878
 2828SOL    HW1 8502   2.853   4.355   1.839
 2828SOL    HW2 8503   2.958   4.299   1.951
 2829SOL     OW 8504   1.940   4.280   3.248
 2829SOL    HW1 8505   2.032   4.279   3.207
 2829SOL    HW2 8506   1.934   4.354   3.315
 2830SOL     OW 8507   2.423   3.946   3.009
 2830SOL    HW1 8508   2.461   3.862   3.046
 2830SOL    HW2 8509   2.335   3.965   3.053
 2831SOL     OW 8510   2.728   4.178   2.504
 2831SOL    HW1 8511   2.696   4.250   2.442
 2831SOL    HW2 8512   2.752   4.097   2.451
 2832SOL     OW 8513   2.879   3.763   2.615
 2832SOL    HW1 8514   2.807   3.768   2.546
 2832SOL    HW2 8515   2.855   3.694   2.684
 2833SOL     OW 8516   3.291   4.897   2.729
 2833SOL    HW1 8517   3.236   4.813   2.722
 2833SOL    HW2 8518   3.317   4.926   2.637
 2834SOL     OW 8519   3.328   4.314   2.854
 2834SOL    HW1 8520   3.298   4.219   2.861
 2834SOL    HW2 8521   3.401   4.330   2.920
 2835SOL     OW 8522   3.719   4.557   2.239
 2835SOL    HW1 8523   3.761   4.493   2.303
 2835SOL    HW2 8524   3.681   4.506   2.161
 2836SOL     OW 8525   3.252   4.299   1.940
 2836SOL    HW1 8526   3.198   4.278   2.021
 2836SOL    HW2 8527   3.343   4.258   1.949
 2837SOL     OW 8528   2.389   3.980   2.190
 2837SOL    HW1 8529   2.416   3.921   2.115
 2837SOL    HW2 8530   2.389   4.075   2.159
 2838SOL     OW 8531   3.616   4.947   3.450
 2838SOL    HW1 8532   3.707   4.908   3.437
 2838SOL    HW2 8533   3.624   5.043   3.474
 2839SOL     OW 8534   3.500   4.823   2.941
 2839SOL    HW1 8535   3.505   4.904   3.000
 2839SOL    HW2 8536   3.414   4.825   2.890
 2840SOL     OW 8537   2.777   3.813   3.264
 2840SOL    HW1 8538   2.802   3.793   3.169
 2840SOL    HW2 8539   2.849   3.869   3.306
 2841SOL     OW 8540   2.842   4.840   3.581
 2841SOL    HW1 8541   2.743   4.846   3.591
 2841SOL    HW2 8542   2.865   4.760   3.525
 2842SOL     OW 8543   2.567   4.774   2.230
 2842SOL    HW1 8544   2.553   4.781   2.329
 2842SOL    HW2 8545   2.651   4.723   2.212
 2843SOL     OW 8546   2.272   4.537   3.113
 2843SOL    HW1 8547   2.358   4.549   3.163
 2843SOL    HW2 8548   2.230   4.450   3.140
 2844SOL     OW 8549   3.136   4.110   3.124
 2844SOL    HW1 8550   3.157   4.184   3.188
 2844SOL    HW2 8551   3.047   4.127   3.081
 2845SOL     OW 8552   2.229   4.824   2.363
 2845SOL    HW1 8553   2.222   4.907   2.307
 2845SOL    HW2 8554   2.233   4.744   2.303
 2846SOL     OW 8555   2.428   4.261   2.727
 2846SOL    HW1 8556   2.440   4.327   2.653
 2846SOL    HW2 8557   2.474   4.295   2.810
 2847SOL     OW 8558   3.444   4.363   2.334
 2847SOL    HW1 8559   3.413   4.424   2.407
 2847SOL    HW2 8560   3.494   4.415   2.265
 2848SOL     OW 8561   2.264   4.475   3.460
 2848SOL    HW1 8562   2.332   4.530   3.413
 2848SOL    HW2 8563   2.304   4.387   3.487
 2849SOL     OW 8564   3.449   4.503   3.532
 2849SOL    HW1 8565   3.357   4.541   3.527
 2849SOL    HW2 8566   3.509   4.550   3.467
 2850SOL     OW 8567   2.875   3.829   3.632
 2850SOL    HW1 8568   2.881   3.914   3.580
 2850SOL    HW2 8569   2.907   3.753   3.575
 2851SOL     OW 8570   2.366   3.774   3.602
 2851SOL    HW1 8571   2.324   3.717   3.532
 2851SOL    HW2 8572   2.300   3.843   3.634
 2852SOL     OW 8573   2.435   4.594   2.891
 2852SOL    HW1 8574   2.479   4.683   2.882
 2852SOL    HW2 8575   2.372   4.594   2.968
 2853SOL     OW 8576   3.222   4.586   2.907
 2853SOL    HW1 8577   3.147   4.586   2.841
 2853SOL    HW2 8578   3.259   4.494   2.916
 2854SOL     OW 8579   3.071   4.249   2.137
 2854SOL    HW1 8580   3.084   4.165   2.191
 2854SOL    HW2 8581   3.042   4.323   2.197
 2855SOL     OW 8582   2.169   3.937   3.093
 2855SOL    HW1 8583   2.146   3.974   3.183
 2855SOL    HW2 8584   2.139   3.842   3.087
 2856SOL     OW 8585   2.594   4.358   2.926
 2856SOL    HW1 8586   2.653   4.332   2.850
 2856SOL    HW2 8587   2.566   4.454   2.915
 2857SOL     OW 8588   3.590   4.659   3.716
 2857SOL    HW1 8589   3.544   4.652   3.627
 2857SOL    HW2 8590   3.528   4.703   3.782
 2858SOL     OW 8591   2.169   3.787   2.480
 2858SOL    HW1 8592   2.158   3.881   2.513
 2858SOL    HW2 8593   2.164   3.724   2.557
 2859SOL     OW 8594   3.484   4.091   2.236
 2859SOL    HW1 8595   3.486   4.015   2.300
 2859SOL    HW2 8596   3.436   4.168   2.276
 2860SOL     OW 8597   2.885   4.490   2.828
 2860SOL    HW1 8598   2.900   4.511   2.924
 2860SOL    HW2 8599   2.855   4.395   2.819
 2861SOL     OW 8600   2.212   4.622   3.666
 2861SOL    HW1 8601   2.288   4.666   3.714
 2861SOL    HW2 8602   2.247   4.575   3.584
 2862SOL     OW 8603   3.402   3.998   1.987
 2862SOL    HW1 8604   3.341   3.923   2.010
 2862SOL    HW2 8605   3.424   4.050   2.070
 2863SOL     OW 8606   3.165   4.562   1.904
 2863SOL    HW1 8607   3.199   4.469   1.919
 2863SOL    HW2 8608   3.183   4.589   1.809
 2864SOL     OW 8609   2.181   4.534   2.811
 2864SOL    HW1 8610   2.274   4.570   2.816
 2864SOL    HW2 8611   2.175   4.449   2.863
 2865SOL     OW 8612   2.201   4.233   2.868
 2865SOL    HW1 8613   2.149   4.150   2.851
 2865SOL    HW2 8614   2.278   4.238   2.804
 2866SOL     OW 8615   3.000   4.104   3.540
 2866SOL    HW1 8616   2.955   4.167   3.604
 2866SOL    HW2 8617   3.093   4.135   3.523
 2867SOL     OW 8618   3.022   3.931   3.339
 2867SOL    HW1 8619   3.022   3.995   3.416
 2867SOL    HW2 8620   3.050   3.979   3.256
 2868SOL     OW 8621   2.864   4.520   3.100
 2868SOL    HW1 8622   2.905   4.488   3.186
 2868SOL    HW2 8623   2.768   4.493   3.097
 2869SOL     OW 8624   1.902   4.268   2.976
 2869SOL    HW1 8625   1.987   4.235   2.935
 2869SOL    HW2 8626   1.915   4.283   3.074
 2870SOL     OW 8627   2.051   4.244   3.584
 2870SOL    HW1 8628   2.110   4.204   3.514
 2870SOL    HW2 8629   1.993   4.315   3.543
 2871SOL     OW 8630   3.231   4.674   3.522
 2871SOL    HW1 8631   3.270   4.763   3.542
 2871SOL    HW2 8632   3.241   4.654   3.425
 2872SOL     OW 8633   2.677   4.296   2.187
 2872SOL    HW1 8634   2.684   4.207   2.141
 2872SOL    HW2 8635   2.583   4.330   2.179
 2873SOL     OW 8636   3.519   4.328   3.068
 2873SOL    HW1 8637   3.481   4.259   3.130
 2873SOL    HW2 8638   3.601   4.292   3.024
 2874SOL     OW 8639   2.533   4.188   3.131
 2874SOL    HW1 8640   2.499   4.099   3.101
 2874SOL    HW2 8641   2.559   4.242   3.051
 2875SOL     OW 8642   2.335   4.224   2.053
 2875SOL    HW1 8643   2.396   4.304   2.057
 2875SOL    HW2 8644   2.240   4.255   2.060
 2876SOL     OW 8645   2.021   4.861   3.328
 2876SOL    HW1 8646   2.043   4.800   3.404
 2876SOL    HW2 8647   2.031   4.812   3.242
 2877SOL     OW 8648   3.209   4.783   3.096
 2877SOL    HW1 8649   3.233   4.720   3.022
 2877SOL    HW2 8650   3.119   4.823   3.078
 2878SOL     OW 8651   3.164   4.579   2.171
 2878SOL    HW1 8652   3.078   4.548   2.213
 2878SOL    HW2 8653   3.160   4.565   2.072
 2879SOL     OW 8654   3.588   3.859   2.385
 2879SOL    HW1 8655   3.661   3.842   2.318
 2879SOL    HW2 8656   3.557   3.772   2.423
 2880SOL     OW 8657   3.142   4.651   2.534
 2880SOL    HW1 8658   3.202   4.570   2.536
 2880SOL    HW2 8659   3.182   4.720   2.474
 2881SOL     OW 8660   3.703   3.899   2.825
 2881SOL    HW1 8661   3.742   3.814   2.789
 2881SOL    HW2 8662   3.605   3.901   2.806
 2882SOL     OW 8663   2.125   4.050   2.582
 2882SOL    HW1 8664   2.046   4.101   2.548
 2882SOL    HW2 8665   2.116   4.035   2.680
 2883SOL     OW 8666   2.684   4.726   3.234
 2883SOL    HW1 8667   2.724   4.725   3.142
 2883SOL    HW2 8668   2.694   4.818   3.274
 2884SOL     OW 8669   2.778   4.634   2.153
 2884SOL    HW1 8670   2.841   4.672   2.085
 2884SOL    HW2 8671   2.818   4.551   2.192
 2885SOL     OW 8672   2.234   5.012   3.352
 2885SOL    HW1 8673   2.221   5.105   3.318
 2885SOL    HW2 8674   2.150   4.960   3.339
 2886SOL     OW 8675   3.476   5.016   3.151
 2886SOL    HW1 8676   3.536   5.019   3.231
 2886SOL    HW2 8677   3.401   5.080   3.164
 2887SOL     OW 8678   2.901   4.822   2.558
 2887SOL    HW1 8679   2.831   4.775   2.612
 2887SOL    HW2 8680   2.960   4.754   2.515
 2888SOL     OW 8681   2.876   3.960   2.833
 2888SOL    HW1 8682   2.868   3.924   2.740
 2888SOL    HW2 8683   2.874   3.884   2.898
 2889SOL     OW 8684   3.571   4.109   3.243
 2889SOL    HW1 8685   3.644   4.178   3.247
 2889SOL    HW2 8686   3.599   4.034   3.184
 2890SOL     OW 8687   1.967   4.737   3.588
 2890SOL    HW1 8688   1.890   4.704   3.642
 2890SOL    HW2 8689   2.052   4.707   3.630
 2891SOL     OW 8690   2.534   3.927   3.351
 2891SOL    HW1 8691   2.624   3.911   3.311
 2891SOL    HW2 8692   2.542   3.932   3.450
 2892SOL     OW 8693   1.937   4.069   1.895
 2892SOL    HW1 8694   1.845   4.041   1.866
 2892SOL    HW2 8695   1.968   4.146   1.839
 2893SOL     OW 8696   3.302   4.580   3.260
 2893SOL    HW1 8697   3.245   4.632   3.197
 2893SOL    HW2 8698   3.398   4.592   3.236
 2894SOL     OW 8699   1.934   3.890   2.180
 2894SOL    HW1 8700   1.917   3.973   2.126
 2894SOL    HW2 8701   2.024   3.853   2.158
 2895SOL     OW 8702   2.475   4.566   3.293
 2895SOL    HW1 8703   2.531   4.647   3.276
 2895SOL    HW2 8704   2.534   4.486   3.296
 2896SOL     OW 8705   2.578   4.289   3.570
 2896SOL    HW1 8706   2.597   4.354   3.644
 2896SOL    HW2 8707   2.638   4.209   3.579
 2897SOL     OW 8708   3.312   4.944   3.495
 2897SOL    HW1 8709   3.303   4.934   3.594
 2897SOL    HW2 8710   3.408   4.937   3.469
 2898SOL     OW 8711   3.536   4.607   3.116
 2898SOL    HW1 8712   3.509   4.518   3.079
 2898SOL    HW2 8713   3.537   4.675   3.043
 2899SOL     OW 8714   3.087   4.049   2.311
 2899SOL    HW1 8715   3.152   3.975   2.300
 2899SOL    HW2 8716   3.107   4.099   2.395
 2900SOL     OW 8717   2.456   4.469   2.514
 2900SOL    HW1 8718   2.506   4.554   2.495
 2900SOL    HW2 8719   2.368   4.471   2.466
 2901SOL     OW 8720   3.639   4.066   3.504
 2901SOL    HW1 8721   3.622   4.097   3.410
 2901SOL    HW2 8722   3.555   4.029   3.542
 2902SOL     OW 8723   3.592   4.658   3.379
 2902SOL    HW1 8724   3.630   4.749   3.394
 2902SOL    HW2 8725   3.584   4.641   3.280
 2903SOL     OW 8726   2.721   4.680   2.723
 2903SOL    HW1 8727   2.775   4.611   2.771
 2903SOL    HW2 8728   2.689   4.749   2.789
 2904SOL     OW 8729   2.945   4.708   1.949
 2904SOL    HW1 8730   2.922   4.761   1.867
 2904SOL    HW2 8731   3.026   4.652   1.930
 2905SOL     OW 8732   1.941   4.964   2.515
 2905SOL    HW1 8733   1.940   4.917   2.603
 2905SOL    HW2 8734   2.023   4.936   2.464
 2906SOL     OW 8735   3.686   3.916   3.089
 2906SOL    HW1 8736   3.682   3.826   3.133
 2906SOL    HW2 8737   3.689   3.905   2.990
 2907SOL     OW 8738   2.290   4.148   2.382
 2907SOL    HW1 8739   2.320   4.076   2.320
 2907SOL    HW2 8740   2.251   4.108   2.465
 2908SOL     OW 8741   2.179   4.271   3.142
 2908SOL    HW1 8742   2.217   4.212   3.214
 2908SOL    HW2 8743   2.219   4.245   3.054
 2909SOL     OW 8744   3.286   3.938   2.974
 2909SOL    HW1 8745   3.338   3.873   3.029
 2909SOL    HW2 8746   3.237   4.001   3.035
 2910SOL     OW 8747   2.863   3.758   3.016
 2910SOL    HW1 8748   2.800   3.686   2.985
 2910SOL    HW2 8749   2.956   3.722   3.016
 2911SOL     OW 8750   2.632   5.054   2.163
 2911SOL    HW1 8751   2.586   4.967   2.180
 2911SOL    HW2 8752   2.723   5.051   2.204
 2912SOL     OW 8753   3.214   3.776   2.030
 2912SOL    HW1 8754   3.249   3.735   1.946
 2912SOL    HW2 8755   3.124   3.738   2.050
 2913SOL     OW 8756   3.162   4.177   2.553
 2913SOL    HW1 8757   3.103   4.257   2.557
 2913SOL    HW2 8758   3.177   4.142   2.646
 2914SOL     OW 8759   3.455   3.945   2.744
 2914SOL    HW1 8760   3.371   3.944   2.798
 2914SOL    HW2 8761   3.457   4.028   2.688
 2915SOL     OW 8762   1.901   4.801   2.162
 2915SOL    HW1 8763   2.000   4.790   2.153
 2915SOL    HW2 8764   1.861   4.715   2.194
 2916SOL     OW 8765   2.092   4.352   3.837
 2916SOL    HW1 8766   1.999   4.350   3.874
 2916SOL    HW2 8767   2.093   4.313   3.745
 2917SOL     OW 8768   2.087   3.999   4.720
 2917SOL    HW1 8769   2.122   3.982   4.812
 2917SOL    HW2 8770   1.999   3.954   4.708
 2918SOL     OW 8771   1.881   4.092   4.371
 2918SOL    HW1 8772   1.799   4.135   4.410
 2918SOL    HW2 8773   1.853   4.019   4.308
 2919SOL     OW 8774   2.997   4.427   4.441
 2919SOL    HW1 8775   3.054   4.505   4.416
 2919SOL    HW2 8776   2.937   4.453   4.517
 2920SOL     OW 8777   3.617   4.331   3.955
 2920SOL    HW1 8778   3.605   4.318   3.856
 2920SOL    HW2 8779   3.587   4.250   4.004
 2921SOL     OW 8780   2.630   4.868   4.747
 2921SOL    HW1 8781   2.552   4.885   4.807
 2921SOL    HW2 8782   2.664   4.955   4.711
 2922SOL     OW 8783   2.547   4.736   4.389
 2922SOL    HW1 8784   2.616   4.720   4.459
 2922SOL    HW2 8785   2.474   4.793   4.427
 2923SOL     OW 8786   3.465   4.171   4.461
 2923SOL    HW1 8787   3.391   4.217   4.411
 2923SOL    HW2 8788   3.516   4.239   4.514
 2924SOL     OW 8789   2.102   4.815   4.610
 2924SOL    HW1 8790   2.116   4.731   4.662
 2924SOL    HW2 8791   2.047   4.879   4.665
 2925SOL     OW 8792   2.468   4.688   3.847
 2925SOL    HW1 8793   2.475   4.772   3.793
 2925SOL    HW2 8794   2.514   4.701   3.935
 2926SOL     OW 8795   1.984   4.367   4.287
 2926SOL    HW1 8796   1.939   4.279   4.304
 2926SOL    HW2 8797   1.983   4.421   4.371
 2927SOL     OW 8798   3.551   4.646   4.336
 2927SOL    HW1 8799   3.646   4.617   4.344
 2927SOL    HW2 8800   3.543   4.711   4.261
 2928SOL     OW 8801   3.503   4.832   4.156
 2928SOL    HW1 8802   3.589   4.834   4.104
 2928SOL    HW2 8803   3.517   4.879   4.244
 2929SOL     OW 8804   2.475   5.089   4.450
 2929SOL    HW1 8805   2.426   5.002   4.459
 2929SOL    HW2 8806   2.452   5.132   4.363
 2930SOL     OW 8807   2.671   3.728   4.226
 2930SOL    HW1 8808   2.711   3.819   4.217
 2930SOL    HW2 8809   2.571   3.736   4.232
 2931SOL     OW 8810   2.059   4.700   4.988
 2931SOL    HW1 8811   2.148   4.655   4.974
 2931SOL    HW2 8812   1.986   4.635   4.969
 2932SOL     OW 8813   3.387   4.723   3.914
 2932SOL    HW1 8814   3.324   4.647   3.927
 2932SOL    HW2 8815   3.435   4.741   4.000
 2933SOL     OW 8816   2.460   4.453   3.994
 2933SOL    HW1 8817   2.484   4.522   3.926
 2933SOL    HW2 8818   2.382   4.486   4.048
 2934SOL     OW 8819   3.143   4.069   4.668
 2934SOL    HW1 8820   3.057   4.019   4.655
 2934SOL    HW2 8821   3.205   4.015   4.724
 2935SOL     OW 8822   2.903   4.425   4.153
 2935SOL    HW1 8823   2.929   4.421   4.249
 2935SOL    HW2 8824   2.818   4.374   4.139
 2936SOL     OW 8825   1.938   4.535   4.513
 2936SOL    HW1 8826   2.037   4.523   4.522
 2936SOL    HW2 8827   1.914   4.630   4.534
 2937SOL     OW 8828   2.727   4.072   3.919
 2937SOL    HW1 8829   2.786   4.135   3.870
 2937SOL    HW2 8830   2.746   3.978   3.890
 2938SOL     OW 8831   3.224   4.868   4.269
 2938SOL    HW1 8832   3.307   4.839   4.221
 2938SOL    HW2 8833   3.175   4.935   4.213
 2939SOL     OW 8834   2.412   3.920   4.609
 2939SOL    HW1 8835   2.407   3.915   4.709
 2939SOL    HW2 8836   2.414   4.016   4.580
 2940SOL     OW 8837   3.657   4.790   4.597
 2940SOL    HW1 8838   3.595   4.775   4.521
 2940SOL    HW2 8839   3.605   4.801   4.682
 2941SOL     OW 8840   2.183   4.667   3.966
 2941SOL    HW1 8841   2.265   4.706   3.924
 2941SOL    HW2 8842   2.156   4.585   3.917
 2942SOL     OW 8843   3.320   4.459   4.452
 2942SOL    HW1 8844   3.315   4.394   4.527
 2942SOL    HW2 8845   3.400   4.518   4.465
 2943SOL     OW 8846   3.262   3.831   4.150
 2943SOL    HW1 8847   3.238   3.794   4.060
 2943SOL    HW2 8848   3.361   3.847   4.154
 2944SOL     OW 8849   2.244   4.424   4.204
 2944SOL    HW1 8850   2.289   4.334   4.201
 2944SOL    HW2 8851   2.150   4.413   4.237
 2945SOL     OW 8852   2.476   3.846   3.841
 2945SOL    HW1 8853   2.574   3.824   3.848
 2945SOL    HW2 8854   2.445   3.829   3.748
 2946SOL     OW 8855   2.784   4.227   4.623
 2946SOL    HW1 8856   2.759   4.218   4.527
 2946SOL    HW2 8857   2.832   4.145   4.654
 2947SOL     OW 8858   2.401   3.788   4.236
 2947SOL    HW1 8859   2.320   3.789   4.294
 2947SOL    HW2 8860   2.404   3.871   4.181
 2948SOL     OW 8861   2.159   3.759   3.895
 2948SOL    HW1 8862   2.208   3.843   3.874
 2948SOL    HW2 8863   2.221   3.694   3.940
 2949SOL     OW 8864   2.797   3.960   4.204
 2949SOL    HW1 8865   2.749   4.001   4.126
 2949SOL    HW2 8866   2.896   3.958   4.185
 2950SOL     OW 8867   2.321   4.876   4.465
 2950SOL    HW1 8868   2.250   4.849   4.530
 2950SOL    HW2 8869   2.295   4.848   4.372
 2951SOL     OW 8870   2.894   4.273   3.740
 2951SOL    HW1 8871   2.853   4.355   3.701
 2951SOL    HW2 8872   2.958   4.299   3.813
 2952SOL     OW 8873   2.728   4.178   4.366
 2952SOL    HW1 8874   2.696   4.250   4.304
 2952SOL    HW2 8875   2.752   4.097   4.313
 2953SOL     OW 8876   2.879   3.763   4.477
 2953SOL    HW1 8877   2.807   3.768   4.408
 2953SOL    HW2 8878   2.855   3.694   4.546
 2954SOL     OW 8879   3.291   4.897   4.591
 2954SOL    HW1 8880   3.236   4.813   4.584
 2954SOL    HW2 8881   3.317   4.926   4.499
 2955SOL     OW 8882   3.328   4.314   4.716
 2955SOL    HW1 8883   3.298   4.219   4.723
 2955SOL    HW2 8884   3.401   4.330   4.782
 2956SOL     OW 8885   3.719   4.557   4.101
 2956SOL    HW1 8886   3.761   4.493   4.165
 2956SOL    HW2 8887   3.681   4.506   4.023
 2957SOL     OW 8888   3.252   4.299   3.802
 2957SOL    HW1 8889   3.198   4.278   3.883
 2957SOL    HW2 8890   3.343   4.258   3.811
 2958SOL     OW 8891   2.389   3.980   4.052
 2958SOL    HW1 8892   2.416   3.921   3.977
 2958SOL    HW2 8893   2.389   4.075   4.021
 2959SOL     OW 8894   3.500   4.823   4.803
 2959SOL    HW1 8895   3.505   4.904   4.862
 2959SOL    HW2 8896   3.414   4.825   4.752
 2960SOL     OW 8897   2.567   4.774   4.092
 2960SOL    HW1 8898   2.553   4.781   4.191
 2960SOL    HW2 8899   2.651   4.723   4.074
 2961SOL     OW 8900   2.272   4.537   4.975
 2961SOL    HW1 8901   2.358   4.549   5.025
 2961SOL    HW2 8902   2.230   4.450   5.002
 2962SOL     OW 8903   2.229   4.824   4.225
 2962SOL    HW1 8904   2.222   4.907   4.169
 2962SOL    HW2 8905   2.233   4.744   4.165
 2963SOL     OW 8906   2.428   4.261   4.589
 2963SOL    HW1 8907   2.440   4.327   4.515
 2963SOL    HW2 8908   2.474   4.295   4.672
 2964SOL     OW 8909   3.444   4.363   4.196
 2964SOL    HW1 8910   3.413   4.424   4.269
 2964SOL    HW2 8911   3.494   4.415   4.127
 2965SOL     OW 8912   2.435   4.594   4.753
 2965SOL    HW1 8913   2.479   4.683   4.744
 2965SOL    HW2 8914   2.372   4.594   4.830
 2966SOL     OW 8915   3.222   4.586   4.769
 2966SOL    HW1 8916   3.147   4.586   4.703
 2966SOL    HW2 8917   3.259   4.494   4.778
 2967SOL     OW 8918   3.071   4.249   3.999
 2967SOL    HW1 8919   3.084   4.165   4.053
 2967SOL    HW2 8920   3.042   4.323   4.059
 2968SOL     OW 8921   2.169   3.937   4.955
 2968SOL    HW1 8922   2.146   3.974   5.045
 2968SOL    HW2 8923   2.139   3.842   4.949
 2969SOL     OW 8924   2.594   4.358   4.788
 2969SOL    HW1 8925   2.653   4.332   4.712
 2969SOL    HW2 8926   2.566   4.454   4.777
 2970SOL     OW 8927   2.169   3.787   4.342
 2970SOL    HW1 8928   2.158   3.881   4.375
 2970SOL    HW2 8929   2.164   3.724   4.419
 2971SOL     OW 8930   3.484   4.091   4.098
 2971SOL    HW1 8931   3.486   4.015   4.162
 2971SOL    HW2 8932   3.436   4.168   4.138
 2972SOL     OW 8933   2.885   4.490   4.690
 2972SOL    HW1 8934   2.900   4.511   4.786
 2972SOL    HW2 8935   2.855   4.395   4.681
 2973SOL     OW 8936   3.402   3.998   3.849
 2973SOL    HW1 8937   3.341   3.923   3.872
 2973SOL    HW2 8938   3.424   4.050   3.932
 2974SOL     OW 8939   3.165   4.562   3.766
 2974SOL    HW1 8940   3.199   4.469   3.781
 2974SOL    HW2 8941   3.183   4.589   3.671
 2975SOL     OW 8942   2.181   4.534   4.673
 2975SOL    HW1 8943   2.274   4.570   4.678
 2975SOL    HW2 8944   2.175   4.449   4.725
 2976SOL     OW 8945   2.201   4.233   4.730
 2976SOL    HW1 8946   2.149   4.150   4.713
 2976SOL    HW2 8947   2.278   4.238   4.666
 2977SOL     OW 8948   3.022   3.931   5.201
 2977SOL    HW1 8949   3.022   3.995   5.278
 2977SOL    HW2 8950   3.050   3.979   5.118
 2978SOL     OW 8951   2.864   4.520   4.962
 2978SOL    HW1 8952   2.905   4.488   5.048
 2978SOL    HW2 8953   2.768   4.493   4.959
 2979SOL     OW 8954   1.902   4.268   4.838
 2979SOL    HW1 8955   1.987   4.235   4.797
 2979SOL    HW2 8956   1.915   4.283   4.936
 2980SOL     OW 8957   2.677   4.296   4.049
 2980SOL    HW1 8958   2.684   4.207   4.003
 2980SOL    HW2 8959   2.583   4.330   4.041
 2981SOL     OW 8960   3.519   4.328   4.930
 2981SOL    HW1 8961   3.481   4.259   4.992
 2981SOL    HW2 8962   3.601   4.292   4.886
 2982SOL     OW 8963   2.533   4.188   4.993
 2982SOL    HW1 8964   2.499   4.099   4.963
 2982SOL    HW2 8965   2.559   4.242   4.913
 2983SOL     OW 8966   2.335   4.224   3.915
 2983SOL    HW1 8967   2.396   4.304   3.919
 2983SOL    HW2 8968   2.240   4.255   3.922
 2984SOL     OW 8969   2.021   4.861   5.190
 2984SOL    HW1 8970   2.043   4.800   5.266
 2984SOL    HW2 8971   2.031   4.812   5.104
 2985SOL     OW 8972   3.209   4.783   4.958
 2985SOL    HW1 8973   3.233   4.720   4.884
 2985SOL    HW2 8974   3.119   4.823   4.940
 2986SOL     OW 8975   3.164   4.579   4.033
 2986SOL    HW1 8976   3.078   4.548   4.075
 2986SOL    HW2 8977   3.160   4.565   3.934
 2987SOL     OW 8978   3.588   3.859   4.247
 2987SOL    HW1 8979   3.661   3.842   4.180
 2987SOL    HW2 8980   3.557   3.772   4.285
 2988SOL     OW 8981   3.142   4.651   4.396
 2988SOL    HW1 8982   3.202   4.570   4.398
 2988SOL    HW2 8983   3.182   4.720   4.336
 2989SOL     OW 8984   3.703   3.899   4.687
 2989SOL    HW1 8985   3.742   3.814   4.651
 2989SOL    HW2 8986   3.605   3.901   4.668
 2990SOL     OW 8987   2.125   4.050   4.444
 2990SOL    HW1 8988   2.046   4.101   4.410
 2990SOL    HW2 8989   2.116   4.035   4.542
 2991SOL     OW 8990   2.684   4.726   5.096
 2991SOL    HW1 8991   2.724   4.725   5.004
 2991SOL    HW2 8992   2.694   4.818   5.136
 2992SOL     OW 8993   2.778   4.634   4.015
 2992SOL    HW1 8994   2.841   4.672   3.947
 2992SOL    HW2 8995   2.818   4.551   4.054
 2993SOL     OW 8996   3.476   5.016   5.013
 2993SOL    HW1 8997   3.536   5.019   5.093
 2993SOL    HW2 8998   3.401   5.080   5.026
 2994SOL     OW 8999   2.901   4.822   4.420
 2994SOL    HW1 9000   2.831   4.775   4.474
 2994SOL    HW2 9001   2.960   4.754   4.377
 2995SOL     OW 9002   2.876   3.960   4.695
 2995SOL    HW1 9003   2.868   3.924   4.602
 2995SOL    HW2 9004   2.874   3.884   4.760
 2996SOL     OW 9005   3.571   4.109   5.105
 2996SOL    HW1 9006   3.644   4.178   5.109
 2996SOL    HW2 9007   3.599   4.034   5.046
 2997SOL     OW 9008   1.937   4.069   3.757
 2997SOL    HW1 9009   1.845   4.041   3.728
 2997SOL    HW2 9010   1.968   4.146   3.701
 2998SOL     OW 9011   1.934   3.890   4.042
 2998SOL    HW1 9012   1.917   3.973   3.988
 2998SOL    HW2 9013   2.024   3.853   4.020
 2999SOL     OW 9014   3.536   4.607   4.978
 2999SOL    HW1 9015   3.509   4.518   4.941
 2999SOL    HW2 9016   3.537   4.675   4.905
 3000SOL     OW 9017   3.087   4.049   4.173
 3000SOL    HW1 9018   3.152   3.975   4.162
 3000SOL    HW2 9019   3.107   4.099   4.257
 3001SOL     OW 9020   2.456   4.469   4.376
 3001SOL    HW1 9021   2.506   4.554   4.357
 3001SOL    HW2 9022   2.368   4.471   4.328
 3002SOL     OW 9023   3.592   4.658   5.241
 3002SOL    HW1 9024   3.630   4.749   5.256
 3002SOL    HW2 9025   3.584   4.641   5.142
 3003SOL     OW 9026   2.721   4.680   4.585
 3003SOL    HW1 9027   2.775   4.611   4.633
 3003SOL    HW2 9028   2.689   4.749   4.651
 3004SOL     OW 9029   2.945   4.708   3.811
 3004SOL    HW1 9030   2.922   4.761   3.729
 3004SOL    HW2 9031   3.026   4.652   3.792
 3005SOL     OW 9032   1.941   4.964   4.377
 3005SOL    HW1 9033   1.940   4.917   4.465
 3005SOL    HW2 9034   2.023   4.936   4.326
 3006SOL     OW 9035   3.686   3.916   4.951
 3006SOL    HW1 9036   3.682   3.826   4.995
 3006SOL    HW2 9037   3.689   3.905   4.852
 3007SOL     OW 9038   2.290   4.148   4.244
 3007SOL    HW1 9039   2.320   4.076   4.182
 3007SOL    HW2 9040   2.251   4.108   4.327
 3008SOL     OW 9041   3.286   3.938   4.836
 3008SOL    HW1 9042   3.338   3.873   4.891
 3008SOL    HW2 9043   3.237   4.001   4.897
 3009SOL     OW 9044   2.863   3.758   4.878
 3009SOL    HW1 9045   2.800   3.686   4.847
 3009SOL    HW2 9046   2.956   3.722   4.878
 3010SOL     OW 9047   2.632   5.054   4.025
 3010SOL    HW1 9048   2.586   4.967   4.042
 3010SOL    HW2 9049   2.723   5.051   4.066
 3011SOL     OW 9050   3.214   3.776   3.892
 3011SOL    HW1 9051   3.249   3.735   3.808
 3011SOL    HW2 9052   3.124   3.738   3.912
 3012SOL     OW 9053   3.162   4.177   4.415
 3012SOL    HW1 9054   3.103   4.257   4.419
 3012SOL    HW2 9055   3.177   4.142   4.508
 3013SOL     OW 9056   3.455   3.945   4.606
 3013SOL    HW1 9057   3.371   3.944   4.660
 3013SOL    HW2 9058   3.457   4.028   4.550
 3014SOL     OW 9059   1.901   4.801   4.024
 3014SOL    HW1 9060   2.000   4.790   4.015
 3014SOL    HW2 9061   1.861   4.715   4.056
 3015SOL     OW 9062   3.954   0.628   0.113
 3015SOL    HW1 9063   3.861   0.626   0.150
 3015SOL    HW2 9064   3.955   0.589   0.021
 3016SOL     OW 9065   3.949   0.275   0.996
 3016SOL    HW1 9066   3.984   0.258   1.088
 3016SOL    HW2 9067   3.861   0.230   0.984
 3017SOL     OW 9068   3.743   0.368   0.647
 3017SOL    HW1 9069   3.661   0.411   0.686
 3017SOL    HW2 9070   3.715   0.295   0.584
 3018SOL     OW 9071   4.293   1.275   1.165
 3018SOL    HW1 9072   4.200   1.268   1.128
 3018SOL    HW2 9073   4.304   1.364   1.209
 3019SOL     OW 9074   4.859   0.703   0.717
 3019SOL    HW1 9075   4.916   0.781   0.692
 3019SOL    HW2 9076   4.799   0.729   0.793
 3020SOL     OW 9077   4.492   1.144   1.023
 3020SOL    HW1 9078   4.414   1.161   1.083
 3020SOL    HW2 9079   4.526   1.231   0.987
 3021SOL     OW 9080   4.574   0.798   1.823
 3021SOL    HW1 9081   4.570   0.874   1.888
 3021SOL    HW2 9082   4.596   0.834   1.732
 3022SOL     OW 9083   4.409   1.012   0.665
 3022SOL    HW1 9084   4.478   0.996   0.735
 3022SOL    HW2 9085   4.336   1.069   0.703
 3023SOL     OW 9086   4.410   1.161   1.803
 3023SOL    HW1 9087   4.470   1.240   1.817
 3023SOL    HW2 9088   4.324   1.192   1.762
 3024SOL     OW 9089   4.059   1.435   1.061
 3024SOL    HW1 9090   3.981   1.404   1.008
 3024SOL    HW2 9091   4.117   1.493   1.004
 3025SOL     OW 9092   4.162   0.392   1.499
 3025SOL    HW1 9093   4.244   0.336   1.508
 3025SOL    HW2 9094   4.081   0.334   1.503
 3026SOL     OW 9095   3.955   1.713   0.483
 3026SOL    HW1 9096   3.989   1.790   0.537
 3026SOL    HW2 9097   3.999   1.713   0.393
 3027SOL     OW 9098   4.851   1.341   1.690
 3027SOL    HW1 9099   4.898   1.341   1.778
 3027SOL    HW2 9100   4.803   1.254   1.679
 3028SOL     OW 9101   3.954   1.434   0.538
 3028SOL    HW1 9102   3.928   1.530   0.538
 3028SOL    HW2 9103   3.883   1.380   0.583
 3029SOL     OW 9104   3.964   1.091   0.886
 3029SOL    HW1 9105   3.978   1.007   0.938
 3029SOL    HW2 9106   3.909   1.155   0.941
 3030SOL     OW 9107   4.344   1.786   1.439
 3030SOL    HW1 9108   4.252   1.769   1.474
 3030SOL    HW2 9109   4.372   1.878   1.465
 3031SOL     OW 9110   4.330   0.964   0.123
 3031SOL    HW1 9111   4.337   1.048   0.069
 3031SOL    HW2 9112   4.376   0.977   0.211
 3032SOL     OW 9113   3.846   0.643   0.563
 3032SOL    HW1 9114   3.801   0.555   0.580
 3032SOL    HW2 9115   3.845   0.697   0.647
 3033SOL     OW 9116   3.751   1.596   0.117
 3033SOL    HW1 9117   3.732   1.500   0.138
 3033SOL    HW2 9118   3.718   1.654   0.192
 3034SOL     OW 9119   3.837   0.737   1.597
 3034SOL    HW1 9120   3.925   0.724   1.642
 3034SOL    HW2 9121   3.824   0.834   1.575
 3035SOL     OW 9122   4.337   1.365   0.726
 3035SOL    HW1 9123   4.288   1.278   0.735
 3035SOL    HW2 9124   4.314   1.408   0.639
 3036SOL     OW 9125   4.533   0.004   0.502
 3036SOL    HW1 9126   4.573   0.095   0.493
 3036SOL    HW2 9127   4.433   0.012   0.508
 3037SOL     OW 9128   3.921   0.976   1.264
 3037SOL    HW1 9129   4.010   0.931   1.250
 3037SOL    HW2 9130   3.848   0.911   1.245
 3038SOL     OW 9131   4.041   0.251   1.801
 3038SOL    HW1 9132   4.112   0.322   1.807
 3038SOL    HW2 9133   3.953   0.290   1.829
 3039SOL     OW 9134   4.322   0.729   0.270
 3039SOL    HW1 9135   4.346   0.798   0.202
 3039SOL    HW2 9136   4.244   0.762   0.324
 3040SOL     OW 9137   4.531   0.605   1.465
 3040SOL    HW1 9138   4.484   0.602   1.554
 3040SOL    HW2 9139   4.480   0.550   1.399
 3041SOL     OW 9140   4.697   0.890   1.572
 3041SOL    HW1 9141   4.743   0.806   1.543
 3041SOL    HW2 9142   4.641   0.924   1.497
 3042SOL     OW 9143   4.715   0.410   1.242
 3042SOL    HW1 9144   4.638   0.444   1.296
 3042SOL    HW2 9145   4.681   0.359   1.163
 3043SOL     OW 9146   4.765   0.701   0.429
 3043SOL    HW1 9147   4.791   0.697   0.525
 3043SOL    HW2 9148   4.680   0.650   0.415
 3044SOL     OW 9149   3.800   0.811   0.789
 3044SOL    HW1 9150   3.899   0.799   0.798
 3044SOL    HW2 9151   3.776   0.906   0.810
 3045SOL     OW 9152   3.854   1.821   1.571
 3045SOL    HW1 9153   3.844   1.806   1.670
 3045SOL    HW2 9154   3.768   1.857   1.535
 3046SOL     OW 9155   4.589   0.348   0.195
 3046SOL    HW1 9156   4.648   0.411   0.146
 3046SOL    HW2 9157   4.608   0.254   0.166
 3047SOL     OW 9158   4.274   0.196   0.885
 3047SOL    HW1 9159   4.269   0.191   0.985
 3047SOL    HW2 9160   4.276   0.292   0.856
 3048SOL     OW 9161   4.732   1.456   0.477
 3048SOL    HW1 9162   4.686   1.528   0.425
 3048SOL    HW2 9163   4.728   1.476   0.575
 3049SOL     OW 9164   4.075   1.801   0.853
 3049SOL    HW1 9165   4.125   1.715   0.859
 3049SOL    HW2 9166   4.140   1.878   0.850
 3050SOL     OW 9167   4.951   1.550   1.506
 3050SOL    HW1 9168   4.957   1.473   1.570
 3050SOL    HW2 9169   4.899   1.524   1.426
 3051SOL     OW 9170   4.045   0.943   0.242
 3051SOL    HW1 9171   4.127   0.982   0.200
 3051SOL    HW2 9172   4.018   0.861   0.193
 3052SOL     OW 9173   4.185   1.266   1.727
 3052SOL    HW1 9174   4.135   1.267   1.641
 3052SOL    HW2 9175   4.122   1.248   1.803
 3053SOL     OW 9176   4.835   1.776   0.237
 3053SOL    HW1 9177   4.775   1.714   0.287
 3053SOL    HW2 9178   4.866   1.732   0.152
 3054SOL     OW 9179   3.926   0.285   1.498
 3054SOL    HW1 9180   3.846   0.345   1.485
 3054SOL    HW2 9181   3.916   0.236   1.584
 3055SOL     OW 9182   4.188   1.743   0.323
 3055SOL    HW1 9183   4.221   1.782   0.409
 3055SOL    HW2 9184   4.264   1.736   0.258
 3056SOL     OW 9185   3.973   1.785   1.241
 3056SOL    HW1 9186   4.030   1.720   1.291
 3056SOL    HW2 9187   3.957   1.752   1.148
 3057SOL     OW 9188   4.664   1.698   0.904
 3057SOL    HW1 9189   4.744   1.641   0.925
 3057SOL    HW2 9190   4.615   1.658   0.827
 3058SOL     OW 9191   4.106   0.700   0.480
 3058SOL    HW1 9192   4.151   0.610   0.477
 3058SOL    HW2 9193   4.012   0.689   0.513
 3059SOL     OW 9194   4.338   0.122   0.117
 3059SOL    HW1 9195   4.436   0.100   0.124
 3059SOL    HW2 9196   4.307   0.105   0.024
 3060SOL     OW 9197   4.505   0.264   1.749
 3060SOL    HW1 9198   4.572   0.203   1.792
 3060SOL    HW2 9199   4.432   0.283   1.814
 3061SOL     OW 9200   4.612   1.514   1.195
 3061SOL    HW1 9201   4.589   1.489   1.101
 3061SOL    HW2 9202   4.673   1.445   1.234
 3062SOL     OW 9203   4.527   1.402   0.924
 3062SOL    HW1 9204   4.617   1.416   0.882
 3062SOL    HW2 9205   4.456   1.404   0.853
 3063SOL     OW 9206   4.646   0.503   0.899
 3063SOL    HW1 9207   4.621   0.494   0.803
 3063SOL    HW2 9208   4.694   0.421   0.930
 3064SOL     OW 9209   4.263   0.064   0.512
 3064SOL    HW1 9210   4.182   0.065   0.570
 3064SOL    HW2 9211   4.266   0.147   0.457
 3065SOL     OW 9212   5.158   1.188   0.041
 3065SOL    HW1 9213   5.190   1.112   0.098
 3065SOL    HW2 9214   5.066   1.215   0.071
 3066SOL     OW 9215   4.021   0.035   0.171
 3066SOL    HW1 9216   4.070   0.119   0.150
 3066SOL    HW2 9217   4.083  -0.030   0.216
 3067SOL     OW 9218   4.659   0.236   0.480
 3067SOL    HW1 9219   4.611   0.277   0.402
 3067SOL    HW2 9220   4.758   0.234   0.461
 3068SOL     OW 9221   4.800   0.683   1.464
 3068SOL    HW1 9222   4.720   0.622   1.467
 3068SOL    HW2 9223   4.881   0.630   1.440
 3069SOL     OW 9224   4.951   1.570   0.793
 3069SOL    HW1 9225   4.972   1.644   0.728
 3069SOL    HW2 9226   5.019   1.570   0.866
 3070SOL     OW 9227   4.183   1.152   0.741
 3070SOL    HW1 9228   4.112   1.125   0.806
 3070SOL    HW2 9229   4.157   1.124   0.648
 3071SOL     OW 9230   4.995   1.797   0.591
 3071SOL    HW1 9231   5.039   1.861   0.527
 3071SOL    HW2 9232   4.945   1.849   0.661
 3072SOL     OW 9233   4.756   0.549   0.016
 3072SOL    HW1 9234   4.715   0.631  -0.023
 3072SOL    HW2 9235   4.820   0.575   0.089
 3073SOL     OW 9236   3.802   0.556   1.386
 3073SOL    HW1 9237   3.894   0.555   1.345
 3073SOL    HW2 9238   3.796   0.630   1.453
 3074SOL     OW 9239   4.285   0.222   1.147
 3074SOL    HW1 9240   4.323   0.138   1.184
 3074SOL    HW2 9241   4.197   0.241   1.191
 3075SOL     OW 9242   4.590   0.454   0.642
 3075SOL    HW1 9243   4.558   0.526   0.580
 3075SOL    HW2 9244   4.614   0.373   0.589
 3076SOL     OW 9245   4.741   0.039   0.753
 3076SOL    HW1 9246   4.669   0.044   0.684
 3076SOL    HW2 9247   4.717  -0.030   0.822
 3077SOL     OW 9248   4.212   1.385   0.174
 3077SOL    HW1 9249   4.125   1.370   0.221
 3077SOL    HW2 9250   4.195   1.411   0.079
 3078SOL     OW 9251   4.251   0.256   0.328
 3078SOL    HW1 9252   4.278   0.197   0.253
 3078SOL    HW2 9253   4.251   0.351   0.297
 3079SOL     OW 9254   4.788   1.347   1.340
 3079SOL    HW1 9255   4.708   1.324   1.395
 3079SOL    HW2 9256   4.871   1.321   1.389
 3080SOL     OW 9257   4.835   1.195   1.100
 3080SOL    HW1 9258   4.795   1.239   1.181
 3080SOL    HW2 9259   4.794   1.232   1.017
 3081SOL     OW 9260   4.639   0.089   1.402
 3081SOL    HW1 9261   4.664   0.069   1.307
 3081SOL    HW2 9262   4.711   0.145   1.444
 3082SOL     OW 9263   4.704   1.116   1.719
 3082SOL    HW1 9264   4.605   1.122   1.729
 3082SOL    HW2 9265   4.727   1.036   1.663
 3083SOL     OW 9266   4.429   1.050   0.368
 3083SOL    HW1 9267   4.415   1.057   0.467
 3083SOL    HW2 9268   4.513   0.999   0.350
 3084SOL     OW 9269   4.134   0.813   1.251
 3084SOL    HW1 9270   4.220   0.825   1.301
 3084SOL    HW2 9271   4.092   0.726   1.278
 3085SOL     OW 9272   3.788   1.564   1.331
 3085SOL    HW1 9273   3.742   1.646   1.297
 3085SOL    HW2 9274   3.886   1.583   1.340
 3086SOL     OW 9275   4.091   1.100   0.501
 3086SOL    HW1 9276   4.084   1.183   0.445
 3086SOL    HW2 9277   4.095   1.020   0.441
 3087SOL     OW 9278   4.290   0.537   0.865
 3087SOL    HW1 9279   4.302   0.603   0.791
 3087SOL    HW2 9280   4.336   0.571   0.948
 3088SOL     OW 9281   4.976   1.348   0.388
 3088SOL    HW1 9282   5.026   1.425   0.428
 3088SOL    HW2 9283   4.881   1.350   0.420
 3089SOL     OW 9284   4.078   1.510   1.329
 3089SOL    HW1 9285   4.057   1.466   1.242
 3089SOL    HW2 9286   4.175   1.536   1.332
 3090SOL     OW 9287   4.126   0.751   1.598
 3090SOL    HW1 9288   4.194   0.806   1.551
 3090SOL    HW2 9289   4.166   0.663   1.625
 3091SOL     OW 9290   4.737   0.105   1.770
 3091SOL    HW1 9291   4.743   0.190   1.718
 3091SOL    HW2 9292   4.769   0.029   1.713
 3092SOL     OW 9293   4.228   0.050   1.740
 3092SOL    HW1 9294   4.186  -0.007   1.670
 3092SOL    HW2 9295   4.162   0.119   1.772
 3093SOL     OW 9296   4.297   0.870   1.029
 3093SOL    HW1 9297   4.341   0.959   1.020
 3093SOL    HW2 9298   4.234   0.870   1.106
 3094SOL     OW 9299   5.084   0.862   1.045
 3094SOL    HW1 9300   5.009   0.862   0.979
 3094SOL    HW2 9301   5.121   0.770   1.054
 3095SOL     OW 9302   4.933   0.525   0.275
 3095SOL    HW1 9303   4.946   0.441   0.329
 3095SOL    HW2 9304   4.904   0.599   0.335
 3096SOL     OW 9305   4.031   0.213   1.231
 3096SOL    HW1 9306   4.008   0.250   1.321
 3096SOL    HW2 9307   4.001   0.118   1.225
 3097SOL     OW 9308   3.761   1.310   1.282
 3097SOL    HW1 9309   3.814   1.261   1.350
 3097SOL    HW2 9310   3.783   1.408   1.287
 3098SOL     OW 9311   4.456   0.634   1.064
 3098SOL    HW1 9312   4.515   0.608   0.988
 3098SOL    HW2 9313   4.428   0.730   1.053
 3099SOL     OW 9314   4.031   0.063   0.618
 3099SOL    HW1 9315   4.020   0.157   0.651
 3099SOL    HW2 9316   4.026   0.000   0.695
 3100SOL     OW 9317   4.747   0.766   0.966
 3100SOL    HW1 9318   4.762   0.787   1.062
 3100SOL    HW2 9319   4.717   0.671   0.957
 3101SOL     OW 9320   4.704   1.573   1.700
 3101SOL    HW1 9321   4.684   1.617   1.612
 3101SOL    HW2 9322   4.743   1.482   1.684
 3102SOL     OW 9323   4.074   0.898   1.804
 3102SOL    HW1 9324   4.150   0.942   1.852
 3102SOL    HW2 9325   4.109   0.851   1.722
 3103SOL     OW 9326   4.792   1.333   0.849
 3103SOL    HW1 9327   4.799   1.249   0.794
 3103SOL    HW2 9328   4.854   1.402   0.813
 3104SOL     OW 9329   4.043   0.810   0.949
 3104SOL    HW1 9330   4.136   0.846   0.954
 3104SOL    HW2 9331   4.037   0.725   1.001
 3105SOL     OW 9332   4.063   0.509   1.006
 3105SOL    HW1 9333   4.011   0.426   0.989
 3105SOL    HW2 9334   4.140   0.514   0.942
 3106SOL     OW 9335   4.862   0.380   1.678
 3106SOL    HW1 9336   4.817   0.443   1.742
 3106SOL    HW2 9337   4.955   0.411   1.661
 3107SOL     OW 9338   4.884   0.207   1.477
 3107SOL    HW1 9339   4.884   0.271   1.554
 3107SOL    HW2 9340   4.912   0.255   1.394
 3108SOL     OW 9341   3.732   1.326   0.200
 3108SOL    HW1 9342   3.639   1.347   0.169
 3108SOL    HW2 9343   3.742   1.227   0.213
 3109SOL     OW 9344   3.812   1.801   0.927
 3109SOL    HW1 9345   3.770   1.715   0.900
 3109SOL    HW2 9346   3.906   1.804   0.893
 3110SOL     OW 9347   4.228   1.568   0.910
 3110SOL    HW1 9348   4.294   1.642   0.919
 3110SOL    HW2 9349   4.272   1.489   0.868
 3111SOL     OW 9350   4.726   0.796   1.238
 3111SOL    HW1 9351   4.767   0.764   1.324
 3111SOL    HW2 9352   4.630   0.769   1.235
 3112SOL     OW 9353   3.764   0.544   1.114
 3112SOL    HW1 9354   3.849   0.511   1.073
 3112SOL    HW2 9355   3.777   0.559   1.212
 3113SOL     OW 9356   3.913   0.520   1.722
 3113SOL    HW1 9357   3.972   0.480   1.652
 3113SOL    HW2 9358   3.855   0.591   1.681
 3114SOL     OW 9359   4.539   0.572   0.325
 3114SOL    HW1 9360   4.546   0.483   0.279
 3114SOL    HW2 9361   4.445   0.606   0.317
 3115SOL     OW 9362   3.976   1.564   1.744
 3115SOL    HW1 9363   3.946   1.621   1.820
 3115SOL    HW2 9364   3.969   1.467   1.770
 3116SOL     OW 9365   4.395   0.464   1.269
 3116SOL    HW1 9366   4.361   0.375   1.239
 3116SOL    HW2 9367   4.421   0.518   1.189
 3117SOL     OW 9368   4.654   1.678   1.465
 3117SOL    HW1 9369   4.630   1.660   1.370
 3117SOL    HW2 9370   4.684   1.772   1.475
 3118SOL     OW 9371   4.197   0.500   0.191
 3118SOL    HW1 9372   4.258   0.580   0.195
 3118SOL    HW2 9373   4.102   0.531   0.198
 3119SOL     OW 9374   3.883   1.137   1.466
 3119SOL    HW1 9375   3.905   1.076   1.542
 3119SOL    HW2 9376   3.893   1.088   1.380
 3120SOL     OW 9377   4.976   1.731   1.128
 3120SOL    HW1 9378   5.060   1.736   1.074
 3120SOL    HW2 9379   4.953   1.635   1.146
 3121SOL     OW 9380   3.807   1.258   1.022
 3121SOL    HW1 9381   3.802   1.257   1.122
 3121SOL    HW2 9382   3.724   1.217   0.984
 3122SOL     OW 9383   4.412   1.662   1.716
 3122SOL    HW1 9384   4.356   1.743   1.725
 3122SOL    HW2 9385   4.464   1.666   1.630
 3123SOL     OW 9386   4.627   0.086   0.133
 3123SOL    HW1 9387   4.678   0.087   0.047
 3123SOL    HW2 9388   4.683   0.044   0.204
 3124SOL     OW 9389   3.854   1.794   1.851
 3124SOL    HW1 9390   3.813   1.720   1.904
 3124SOL    HW2 9391   3.918   1.845   1.909
 3125SOL     OW 9392   4.554   1.273   1.422
 3125SOL    HW1 9393   4.549   1.306   1.517
 3125SOL    HW2 9394   4.468   1.292   1.376
 3126SOL     OW 9395   4.396   1.616   0.154
 3126SOL    HW1 9396   4.405   1.626   0.055
 3126SOL    HW2 9397   4.356   1.527   0.175
 3127SOL     OW 9398   3.987   0.326   0.720
 3127SOL    HW1 9399   3.908   0.377   0.686
 3127SOL    HW2 9400   3.978   0.311   0.818
 3128SOL     OW 9401   4.546   1.002   1.372
 3128SOL    HW1 9402   4.586   1.001   1.280
 3128SOL    HW2 9403   4.556   1.094   1.412
 3129SOL     OW 9404   4.640   0.910   0.291
 3129SOL    HW1 9405   4.703   0.948   0.223
 3129SOL    HW2 9406   4.680   0.827   0.330
 3130SOL     OW 9407   4.096   1.288   1.490
 3130SOL    HW1 9408   4.083   1.381   1.456
 3130SOL    HW2 9409   4.012   1.236   1.477
 3131SOL     OW 9410   4.763   1.098   0.696
 3131SOL    HW1 9411   4.693   1.051   0.750
 3131SOL    HW2 9412   4.822   1.030   0.653
 3132SOL     OW 9413   4.738   0.236   0.971
 3132SOL    HW1 9414   4.730   0.200   0.878
 3132SOL    HW2 9415   4.736   0.160   1.036
 3133SOL     OW 9416   4.314   1.487   0.491
 3133SOL    HW1 9417   4.356   1.429   0.421
 3133SOL    HW2 9418   4.270   1.566   0.447
 3134SOL     OW 9419   3.979   1.348   0.290
 3134SOL    HW1 9420   3.883   1.349   0.263
 3134SOL    HW2 9421   3.991   1.401   0.374
 3135SOL     OW 9422   3.829   1.013   1.726
 3135SOL    HW1 9423   3.752   0.980   1.780
 3135SOL    HW2 9424   3.914   0.983   1.768
 3136SOL     OW 9425   4.396   0.203   1.489
 3136SOL    HW1 9426   4.486   0.187   1.449
 3136SOL    HW2 9427   4.404   0.208   1.588
 3137SOL     OW 9428   3.796   0.166   0.318
 3137SOL    HW1 9429   3.779   0.249   0.264
 3137SOL    HW2 9430   3.886   0.129   0.296
 3138SOL     OW 9431   4.337   0.842   1.431
 3138SOL    HW1 9432   4.393   0.923   1.414
 3138SOL    HW2 9433   4.396   0.762   1.434
 3139SOL     OW 9434   4.440   0.565   1.708
 3139SOL    HW1 9435   4.459   0.630   1.782
 3139SOL    HW2 9436   4.500   0.485   1.717
 3140SOL     OW 9437   4.114   1.741   1.560
 3140SOL    HW1 9438   4.023   1.782   1.558
 3140SOL    HW2 9439   4.107   1.647   1.592
 3141SOL     OW 9440   4.318   0.745   0.652
 3141SOL    HW1 9441   4.368   0.830   0.633
 3141SOL    HW2 9442   4.230   0.747   0.604
 3142SOL     OW 9443   4.583   1.374   0.016
 3142SOL    HW1 9444   4.537   1.389   0.104
 3142SOL    HW2 9445   4.627   1.459  -0.014
 3143SOL     OW 9446   4.385   1.790   0.953
 3143SOL    HW1 9447   4.339   1.878   0.940
 3143SOL    HW2 9448   4.484   1.802   0.946
 3144SOL     OW 9449   4.583   0.956   0.861
 3144SOL    HW1 9450   4.637   0.887   0.909
 3144SOL    HW2 9451   4.551   1.025   0.927
 3145SOL     OW 9452   4.807   0.984   0.087
 3145SOL    HW1 9453   4.784   1.037   0.005
 3145SOL    HW2 9454   4.888   0.928   0.068
 3146SOL     OW 9455   3.945   1.314   1.844
 3146SOL    HW1 9456   3.880   1.241   1.823
 3146SOL    HW2 9457   3.949   1.328   1.942
 3147SOL     OW 9458   3.803   1.240   0.653
 3147SOL    HW1 9459   3.802   1.193   0.741
 3147SOL    HW2 9460   3.885   1.212   0.602
 3148SOL     OW 9461   4.396   1.391   1.624
 3148SOL    HW1 9462   4.318   1.341   1.662
 3148SOL    HW2 9463   4.393   1.486   1.655
 3149SOL     OW 9464   4.152   0.424   0.520
 3149SOL    HW1 9465   4.182   0.352   0.458
 3149SOL    HW2 9466   4.113   0.384   0.603
 3150SOL     OW 9467   4.041   0.547   1.280
 3150SOL    HW1 9468   4.079   0.488   1.352
 3150SOL    HW2 9469   4.081   0.521   1.192
 3151SOL     OW 9470   4.536   1.586   0.687
 3151SOL    HW1 9471   4.568   1.596   0.593
 3151SOL    HW2 9472   4.457   1.524   0.689
 3152SOL     OW 9473   4.725   0.034   1.154
 3152SOL    HW1 9474   4.662  -0.038   1.123
 3152SOL    HW2 9475   4.818  -0.002   1.154
 3153SOL     OW 9476   4.494   1.330   0.301
 3153SOL    HW1 9477   4.448   1.243   0.318
 3153SOL    HW2 9478   4.585   1.327   0.342
 3154SOL     OW 9479   4.342   1.567   1.284
 3154SOL    HW1 9480   4.337   1.649   1.341
 3154SOL    HW2 9481   4.431   1.564   1.239
 3155SOL     OW 9482   4.599   1.646   0.337
 3155SOL    HW1 9483   4.522   1.611   0.283
 3155SOL    HW2 9484   4.567   1.717   0.399
 3156SOL     OW 9485   3.954   0.628   1.975
 3156SOL    HW1 9486   3.861   0.626   2.012
 3156SOL    HW2 9487   3.955   0.589   1.883
 3157SOL     OW 9488   3.949   0.275   2.858
 3157SOL    HW1 9489   3.984   0.258   2.950
 3157SOL    HW2 9490   3.861   0.230   2.846
 3158SOL     OW 9491   3.743   0.368   2.509
 3158SOL    HW1 9492   3.661   0.411   2.548
 3158SOL    HW2 9493   3.715   0.295   2.446
 3159SOL     OW 9494   4.293   1.275   3.027
 3159SOL    HW1 9495   4.200   1.268   2.990
 3159SOL    HW2 9496   4.304   1.364   3.071
 3160SOL     OW 9497   4.859   0.703   2.579
 3160SOL    HW1 9498   4.916   0.781   2.554
 3160SOL    HW2 9499   4.799   0.729   2.655
 3161SOL     OW 9500   4.492   1.144   2.885
 3161SOL    HW1 9501   4.414   1.161   2.945
 3161SOL    HW2 9502   4.526   1.231   2.849
 3162SOL     OW 9503   4.574   0.798   3.685
 3162SOL    HW1 9504   4.570   0.874   3.750
 3162SOL    HW2 9505   4.596   0.834   3.594
 3163SOL     OW 9506   4.409   1.012   2.527
 3163SOL    HW1 9507   4.478   0.996   2.597
 3163SOL    HW2 9508   4.336   1.069   2.565
 3164SOL     OW 9509   4.410   1.161   3.665
 3164SOL    HW1 9510   4.470   1.240   3.679
 3164SOL    HW2 9511   4.324   1.192   3.624
 3165SOL     OW 9512   4.059   1.435   2.923
 3165SOL    HW1 9513   3.981   1.404   2.870
 3165SOL    HW2 9514   4.117   1.493   2.866
 3166SOL     OW 9515   4.162   0.392   3.361
 3166SOL    HW1 9516   4.244   0.336   3.370
 3166SOL    HW2 9517   4.081   0.334   3.365
 3167SOL     OW 9518   3.955   1.713   2.345
 3167SOL    HW1 9519   3.989   1.790   2.399
 3167SOL    HW2 9520   3.999   1.713   2.255
 3168SOL     OW 9521   4.851   1.341   3.552
 3168SOL    HW1 9522   4.898   1.341   3.640
 3168SOL    HW2 9523   4.803   1.254   3.541
 3169SOL     OW 9524   3.954   1.434   2.400
 3169SOL    HW1 9525   3.928   1.530   2.400
 3169SOL    HW2 9526   3.883   1.380   2.445
 3170SOL     OW 9527   3.964   1.091   2.748
 3170SOL    HW1 9528   3.978   1.007   2.800
 3170SOL    HW2 9529   3.909   1.155   2.803
 3171SOL     OW 9530   4.344   1.786   3.301
 3171SOL    HW1 9531   4.252   1.769   3.336
 3171SOL    HW2 9532   4.372   1.878   3.327
 3172SOL     OW 9533   4.330   0.964   1.985
 3172SOL    HW1 9534   4.337   1.048   1.931
 3172SOL    HW2 9535   4.376   0.977   2.073
 3173SOL     OW 9536   3.846   0.643   2.425
 3173SOL    HW1 9537   3.801   0.555   2.442
 3173SOL    HW2 9538   3.845   0.697   2.509
 3174SOL     OW 9539   3.751   1.596   1.979
 3174SOL    HW1 9540   3.732   1.500   2.000
 3174SOL    HW2 9541   3.718   1.654   2.054
 3175SOL     OW 9542   3.837   0.737   3.459
 3175SOL    HW1 9543   3.925   0.724   3.504
 3175SOL    HW2 9544   3.824   0.834   3.437
 3176SOL     OW 9545   4.337   1.365   2.588
 3176SOL    HW1 9546   4.288   1.278   2.597
 3176SOL    HW2 9547   4.314   1.408   2.501
 3177SOL     OW 9548   4.533   0.004   2.364
 3177SOL    HW1 9549   4.573   0.095   2.355
 3177SOL    HW2 9550   4.433   0.012   2.370
 3178SOL     OW 9551   3.921   0.976   3.126
 3178SOL    HW1 9552   4.010   0.931   3.112
 3178SOL    HW2 9553   3.848   0.911   3.107
 3179SOL     OW 9554   4.041   0.251   3.663
 3179SOL    HW1 9555   4.112   0.322   3.669
 3179SOL    HW2 9556   3.953   0.290   3.691
 3180SOL     OW 9557   4.322   0.729   2.132
 3180SOL    HW1 9558   4.346   0.798   2.064
 3180SOL    HW2 9559   4.244   0.762   2.186
 3181SOL     OW 9560   4.531   0.605   3.327
 3181SOL    HW1 9561   4.484   0.602   3.416
 3181SOL    HW2 9562   4.480   0.550   3.261
 3182SOL     OW 9563   4.697   0.890   3.434
 3182SOL    HW1 9564   4.743   0.806   3.405
 3182SOL    HW2 9565   4.641   0.924   3.359
 3183SOL     OW 9566   4.715   0.410   3.104
 3183SOL    HW1 9567   4.638   0.444   3.158
 3183SOL    HW2 9568   4.681   0.359   3.025
 3184SOL     OW 9569   4.765   0.701   2.291
 3184SOL    HW1 9570   4.791   0.697   2.387
 3184SOL    HW2 9571   4.680   0.650   2.277
 3185SOL     OW 9572   3.800   0.811   2.651
 3185SOL    HW1 9573   3.899   0.799   2.660
 3185SOL    HW2 9574   3.776   0.906   2.672
 3186SOL     OW 9575   3.854   1.821   3.433
 3186SOL    HW1 9576   3.844   1.806   3.532
 3186SOL    HW2 9577   3.768   1.857   3.397
 3187SOL     OW 9578   4.589   0.348   2.057
 3187SOL    HW1 9579   4.648   0.411   2.008
 3187SOL    HW2 9580   4.608   0.254   2.028
 3188SOL     OW 9581   4.274   0.196   2.747
 3188SOL    HW1 9582   4.269   0.191   2.847
 3188SOL    HW2 9583   4.276   0.292   2.718
 3189SOL     OW 9584   4.732   1.456   2.339
 3189SOL    HW1 9585   4.686   1.528   2.287
 3189SOL    HW2 9586   4.728   1.476   2.437
 3190SOL     OW 9587   4.075   1.801   2.715
 3190SOL    HW1 9588   4.125   1.715   2.721
 3190SOL    HW2 9589   4.140   1.878   2.712
 3191SOL     OW 9590   4.951   1.550   3.368
 3191SOL    HW1 9591   4.957   1.473   3.432
 3191SOL    HW2 9592   4.899   1.524   3.288
 3192SOL     OW 9593   4.045   0.943   2.104
 3192SOL    HW1 9594   4.127   0.982   2.062
 3192SOL    HW2 9595   4.018   0.861   2.055
 3193SOL     OW 9596   4.185   1.266   3.589
 3193SOL    HW1 9597   4.135   1.267   3.503
 3193SOL    HW2 9598   4.122   1.248   3.665
 3194SOL     OW 9599   4.835   1.776   2.099
 3194SOL    HW1 9600   4.775   1.714   2.149
 3194SOL    HW2 9601   4.866   1.732   2.014
 3195SOL     OW 9602   3.926   0.285   3.360
 3195SOL    HW1 9603   3.846   0.345   3.347
 3195SOL    HW2 9604   3.916   0.236   3.446
 3196SOL     OW 9605   4.188   1.743   2.185
 3196SOL    HW1 9606   4.221   1.782   2.271
 3196SOL    HW2 9607   4.264   1.736   2.120
 3197SOL     OW 9608   3.973   1.785   3.103
 3197SOL    HW1 9609   4.030   1.720   3.153
 3197SOL    HW2 9610   3.957   1.752   3.010
 3198SOL     OW 9611   4.664   1.698   2.766
 3198SOL    HW1 9612   4.744   1.641   2.787
 3198SOL    HW2 9613   4.615   1.658   2.689
 3199SOL     OW 9614   4.106   0.700   2.342
 3199SOL    HW1 9615   4.151   0.610   2.339
 3199SOL    HW2 9616   4.012   0.689   2.375
 3200SOL     OW 9617   4.338   0.122   1.979
 3200SOL    HW1 9618   4.436   0.100   1.986
 3200SOL    HW2 9619   4.307   0.105   1.886
 3201SOL     OW 9620   4.505   0.264   3.611
 3201SOL    HW1 9621   4.572   0.203   3.654
 3201SOL    HW2 9622   4.432   0.283   3.676
 3202SOL     OW 9623   4.612   1.514   3.057
 3202SOL    HW1 9624   4.589   1.489   2.963
 3202SOL    HW2 9625   4.673   1.445   3.096
 3203SOL     OW 9626   4.527   1.402   2.786
 3203SOL    HW1 9627   4.617   1.416   2.744
 3203SOL    HW2 9628   4.456   1.404   2.715
 3204SOL     OW 9629   4.646   0.503   2.761
 3204SOL    HW1 9630   4.621   0.494   2.665
 3204SOL    HW2 9631   4.694   0.421   2.792
 3205SOL     OW 9632   4.263   0.064   2.374
 3205SOL    HW1 9633   4.182   0.065   2.432
 3205SOL    HW2 9634   4.266   0.147   2.319
 3206SOL     OW 9635   4.021   0.035   2.033
 3206SOL    HW1 9636   4.070   0.119   2.012
 3206SOL    HW2 9637   4.083  -0.030   2.078
 3207SOL     OW 9638   4.659   0.236   2.342
 3207SOL    HW1 9639   4.611   0.277   2.264
 3207SOL    HW2 9640   4.758   0.234   2.323
 3208SOL     OW 9641   4.800   0.683   3.326
 3208SOL    HW1 9642   4.720   0.622   3.329
 3208SOL    HW2 9643   4.881   0.630   3.302
 3209SOL     OW 9644   4.951   1.570   2.655
 3209SOL    HW1 9645   4.972   1.644   2.590
 3209SOL    HW2 9646   5.019   1.570   2.728
 3210SOL     OW 9647   4.183   1.152   2.603
 3210SOL    HW1 9648   4.112   1.125   2.668
 3210SOL    HW2 9649   4.157   1.124   2.510
 3211SOL     OW 9650   4.995   1.797   2.453
 3211SOL    HW1 9651   5.039   1.861   2.389
 3211SOL    HW2 9652   4.945   1.849   2.523
 3212SOL     OW 9653   4.756   0.549   1.878
 3212SOL    HW1 9654   4.715   0.631   1.839
 3212SOL    HW2 9655   4.820   0.575   1.951
 3213SOL     OW 9656   3.802   0.556   3.248
 3213SOL    HW1 9657   3.894   0.555   3.207
 3213SOL    HW2 9658   3.796   0.630   3.315
 3214SOL     OW 9659   4.285   0.222   3.009
 3214SOL    HW1 9660   4.323   0.138   3.046
 3214SOL    HW2 9661   4.197   0.241   3.053
 3215SOL     OW 9662   4.590   0.454   2.504
 3215SOL    HW1 9663   4.558   0.526   2.442
 3215SOL    HW2 9664   4.614   0.373   2.451
 3216SOL     OW 9665   4.741   0.039   2.615
 3216SOL    HW1 9666   4.669   0.044   2.546
 3216SOL    HW2 9667   4.717  -0.030   2.684
 3217SOL     OW 9668   4.212   1.385   2.036
 3217SOL    HW1 9669   4.125   1.370   2.083
 3217SOL    HW2 9670   4.195   1.411   1.941
 3218SOL     OW 9671   4.251   0.256   2.190
 3218SOL    HW1 9672   4.278   0.197   2.115
 3218SOL    HW2 9673   4.251   0.351   2.159
 3219SOL     OW 9674   4.788   1.347   3.202
 3219SOL    HW1 9675   4.708   1.324   3.257
 3219SOL    HW2 9676   4.871   1.321   3.251
 3220SOL     OW 9677   4.835   1.195   2.962
 3220SOL    HW1 9678   4.795   1.239   3.043
 3220SOL    HW2 9679   4.794   1.232   2.879
 3221SOL     OW 9680   4.639   0.089   3.264
 3221SOL    HW1 9681   4.664   0.069   3.169
 3221SOL    HW2 9682   4.711   0.145   3.306
 3222SOL     OW 9683   4.704   1.116   3.581
 3222SOL    HW1 9684   4.605   1.122   3.591
 3222SOL    HW2 9685   4.727   1.036   3.525
 3223SOL     OW 9686   4.429   1.050   2.230
 3223SOL    HW1 9687   4.415   1.057   2.329
 3223SOL    HW2 9688   4.513   0.999   2.212
 3224SOL     OW 9689   4.134   0.813   3.113
 3224SOL    HW1 9690   4.220   0.825   3.163
 3224SOL    HW2 9691   4.092   0.726   3.140
 3225SOL     OW 9692   3.788   1.564   3.193
 3225SOL    HW1 9693   3.742   1.646   3.159
 3225SOL    HW2 9694   3.886   1.583   3.202
 3226SOL     OW 9695   4.091   1.100   2.363
 3226SOL    HW1 9696   4.084   1.183   2.307
 3226SOL    HW2 9697   4.095   1.020   2.303
 3227SOL     OW 9698   4.290   0.537   2.727
 3227SOL    HW1 9699   4.302   0.603   2.653
 3227SOL    HW2 9700   4.336   0.571   2.810
 3228SOL     OW 9701   4.976   1.348   2.250
 3228SOL    HW1 9702   5.026   1.425   2.290
 3228SOL    HW2 9703   4.881   1.350   2.282
 3229SOL     OW 9704   4.078   1.510   3.191
 3229SOL    HW1 9705   4.057   1.466   3.104
 3229SOL    HW2 9706   4.175   1.536   3.194
 3230SOL     OW 9707   4.126   0.751   3.460
 3230SOL    HW1 9708   4.194   0.806   3.413
 3230SOL    HW2 9709   4.166   0.663   3.487
 3231SOL     OW 9710   4.737   0.105   3.632
 3231SOL    HW1 9711   4.743   0.190   3.580
 3231SOL    HW2 9712   4.769   0.029   3.575
 3232SOL     OW 9713   4.228   0.050   3.602
 3232SOL    HW1 9714   4.186  -0.007   3.532
 3232SOL    HW2 9715   4.162   0.119   3.634
 3233SOL     OW 9716   4.297   0.870   2.891
 3233SOL    HW1 9717   4.341   0.959   2.882
 3233SOL    HW2 9718   4.234   0.870   2.968
 3234SOL     OW 9719   5.084   0.862   2.907
 3234SOL    HW1 9720   5.009   0.862   2.841
 3234SOL    HW2 9721   5.121   0.770   2.916
 3235SOL     OW 9722   4.933   0.525   2.137
 3235SOL    HW1 9723   4.946   0.441   2.191
 3235SOL    HW2 9724   4.904   0.599   2.197
 3236SOL     OW 9725   4.031   0.213   3.093
 3236SOL    HW1 9726   4.008   0.250   3.183
 3236SOL    HW2 9727   4.001   0.118   3.087
 3237SOL     OW 9728   3.761   1.310   3.144
 3237SOL    HW1 9729   3.814   1.261   3.212
 3237SOL    HW2 9730   3.783   1.408   3.149
 3238SOL     OW 9731   4.456   0.634   2.926
 3238SOL    HW1 9732   4.515   0.608   2.850
 3238SOL    HW2 9733   4.428   0.730   2.915
 3239SOL     OW 9734   4.031   0.063   2.480
 3239SOL    HW1 9735   4.020   0.157   2.513
 3239SOL    HW2 9736   4.026   0.000   2.557
 3240SOL     OW 9737   4.747   0.766   2.828
 3240SOL    HW1 9738   4.762   0.787   2.924
 3240SOL    HW2 9739   4.717   0.671   2.819
 3241SOL     OW 9740   4.704   1.573   3.562
 3241SOL    HW1 9741   4.684   1.617   3.474
 3241SOL    HW2 9742   4.743   1.482   3.546
 3242SOL     OW 9743   4.074   0.898   3.666
 3242SOL    HW1 9744   4.150   0.942   3.714
 3242SOL    HW2 9745   4.109   0.851   3.584
 3243SOL     OW 9746   5.264   0.274   1.987
 3243SOL    HW1 9747   5.203   0.199   2.010
 3243SOL    HW2 9748   5.286   0.326   2.070
 3244SOL     OW 9749   4.792   1.333   2.711
 3244SOL    HW1 9750   4.799   1.249   2.656
 3244SOL    HW2 9751   4.854   1.402   2.675
 3245SOL     OW 9752   4.043   0.810   2.811
 3245SOL    HW1 9753   4.136   0.846   2.816
 3245SOL    HW2 9754   4.037   0.725   2.863
 3246SOL     OW 9755   4.063   0.509   2.868
 3246SOL    HW1 9756   4.011   0.426   2.851
 3246SOL    HW2 9757   4.140   0.514   2.804
 3247SOL     OW 9758   4.862   0.380   3.540
 3247SOL    HW1 9759   4.817   0.443   3.604
 3247SOL    HW2 9760   4.955   0.411   3.523
 3248SOL     OW 9761   4.884   0.207   3.339
 3248SOL    HW1 9762   4.884   0.271   3.416
 3248SOL    HW2 9763   4.912   0.255   3.256
 3249SOL     OW 9764   3.732   1.326   2.062
 3249SOL    HW1 9765   3.639   1.347   2.031
 3249SOL    HW2 9766   3.742   1.227   2.075
 3250SOL     OW 9767   3.812   1.801   2.789
 3250SOL    HW1 9768   3.770   1.715   2.762
 3250SOL    HW2 9769   3.906   1.804   2.755
 3251SOL     OW 9770   4.228   1.568   2.772
 3251SOL    HW1 9771   4.294   1.642   2.781
 3251SOL    HW2 9772   4.272   1.489   2.730
 3252SOL     OW 9773   4.726   0.796   3.100
 3252SOL    HW1 9774   4.767   0.764   3.186
 3252SOL    HW2 9775   4.630   0.769   3.097
 3253SOL     OW 9776   3.764   0.544   2.976
 3253SOL    HW1 9777   3.849   0.511   2.935
 3253SOL    HW2 9778   3.777   0.559   3.074
 3254SOL     OW 9779   3.913   0.520   3.584
 3254SOL    HW1 9780   3.972   0.480   3.514
 3254SOL    HW2 9781   3.855   0.591   3.543
 3255SOL     OW 9782   4.539   0.572   2.187
 3255SOL    HW1 9783   4.546   0.483   2.141
 3255SOL    HW2 9784   4.445   0.606   2.179
 3256SOL     OW 9785   3.976   1.564   3.606
 3256SOL    HW1 9786   3.946   1.621   3.682
 3256SOL    HW2 9787   3.969   1.467   3.632
 3257SOL     OW 9788   4.395   0.464   3.131
 3257SOL    HW1 9789   4.361   0.375   3.101
 3257SOL    HW2 9790   4.421   0.518   3.051
 3258SOL     OW 9791   4.654   1.678   3.327
 3258SOL    HW1 9792   4.630   1.660   3.232
 3258SOL    HW2 9793   4.684   1.772   3.337
 3259SOL     OW 9794   4.197   0.500   2.053
 3259SOL    HW1 9795   4.258   0.580   2.057
 3259SOL    HW2 9796   4.102   0.531   2.060
 3260SOL     OW 9797   3.883   1.137   3.328
 3260SOL    HW1 9798   3.905   1.076   3.404
 3260SOL    HW2 9799   3.893   1.088   3.242
 3261SOL     OW 9800   4.976   1.731   2.990
 3261SOL    HW1 9801   5.060   1.736   2.936
 3261SOL    HW2 9802   4.953   1.635   3.008
 3262SOL     OW 9803   3.807   1.258   2.884
 3262SOL    HW1 9804   3.802   1.257   2.984
 3262SOL    HW2 9805   3.724   1.217   2.846
 3263SOL     OW 9806   4.412   1.662   3.578
 3263SOL    HW1 9807   4.356   1.743   3.587
 3263SOL    HW2 9808   4.464   1.666   3.492
 3264SOL     OW 9809   3.854   1.794   3.713
 3264SOL    HW1 9810   3.813   1.720   3.766
 3264SOL    HW2 9811   3.918   1.845   3.771
 3265SOL     OW 9812   4.554   1.273   3.284
 3265SOL    HW1 9813   4.549   1.306   3.379
 3265SOL    HW2 9814   4.468   1.292   3.238
 3266SOL     OW 9815   4.396   1.616   2.016
 3266SOL    HW1 9816   4.405   1.626   1.917
 3266SOL    HW2 9817   4.356   1.527   2.037
 3267SOL     OW 9818   3.987   0.326   2.582
 3267SOL    HW1 9819   3.908   0.377   2.548
 3267SOL    HW2 9820   3.978   0.311   2.680
 3268SOL     OW 9821   4.546   1.002   3.234
 3268SOL    HW1 9822   4.586   1.001   3.142
 3268SOL    HW2 9823   4.556   1.094   3.274
 3269SOL     OW 9824   4.640   0.910   2.153
 3269SOL    HW1 9825   4.703   0.948   2.085
 3269SOL    HW2 9826   4.680   0.827   2.192
 3270SOL     OW 9827   4.096   1.288   3.352
 3270SOL    HW1 9828   4.083   1.381   3.318
 3270SOL    HW2 9829   4.012   1.236   3.339
 3271SOL     OW 9830   4.763   1.098   2.558
 3271SOL    HW1 9831   4.693   1.051   2.612
 3271SOL    HW2 9832   4.822   1.030   2.515
 3272SOL     OW 9833   4.738   0.236   2.833
 3272SOL    HW1 9834   4.730   0.200   2.740
 3272SOL    HW2 9835   4.736   0.160   2.898
 3273SOL     OW 9836   4.314   1.487   2.353
 3273SOL    HW1 9837   4.356   1.429   2.283
 3273SOL    HW2 9838   4.270   1.566   2.309
 3274SOL     OW 9839   3.979   1.348   2.152
 3274SOL    HW1 9840   3.883   1.349   2.125
 3274SOL    HW2 9841   3.991   1.401   2.236
 3275SOL     OW 9842   3.829   1.013   3.588
 3275SOL    HW1 9843   3.752   0.980   3.642
 3275SOL    HW2 9844   3.914   0.983   3.630
 3276SOL     OW 9845   4.396   0.203   3.351
 3276SOL    HW1 9846   4.486   0.187   3.311
 3276SOL    HW2 9847   4.404   0.208   3.450
 3277SOL     OW 9848   3.799   0.345   1.895
 3277SOL    HW1 9849   3.707   0.317   1.866
 3277SOL    HW2 9850   3.830   0.422   1.839
 3278SOL     OW 9851   3.796   0.166   2.180
 3278SOL    HW1 9852   3.779   0.249   2.126
 3278SOL    HW2 9853   3.886   0.129   2.158
 3279SOL     OW 9854   4.337   0.842   3.293
 3279SOL    HW1 9855   4.393   0.923   3.276
 3279SOL    HW2 9856   4.396   0.762   3.296
 3280SOL     OW 9857   4.440   0.565   3.570
 3280SOL    HW1 9858   4.459   0.630   3.644
 3280SOL    HW2 9859   4.500   0.485   3.579
 3281SOL     OW 9860   4.114   1.741   3.422
 3281SOL    HW1 9861   4.023   1.782   3.420
 3281SOL    HW2 9862   4.107   1.647   3.454
 3282SOL     OW 9863   4.318   0.745   2.514
 3282SOL    HW1 9864   4.368   0.830   2.495
 3282SOL    HW2 9865   4.230   0.747   2.466
 3283SOL     OW 9866   4.583   1.374   1.878
 3283SOL    HW1 9867   4.537   1.389   1.966
 3283SOL    HW2 9868   4.627   1.459   1.848
 3284SOL     OW 9869   4.385   1.790   2.815
 3284SOL    HW1 9870   4.339   1.878   2.802
 3284SOL    HW2 9871   4.484   1.802   2.808
 3285SOL     OW 9872   4.583   0.956   2.723
 3285SOL    HW1 9873   4.637   0.887   2.771
 3285SOL    HW2 9874   4.551   1.025   2.789
 3286SOL     OW 9875   4.807   0.984   1.949
 3286SOL    HW1 9876   4.784   1.037   1.867
 3286SOL    HW2 9877   4.888   0.928   1.930
 3287SOL     OW 9878   3.945   1.314   3.706
 3287SOL    HW1 9879   3.880   1.241   3.685
 3287SOL    HW2 9880   3.949   1.328   3.804
 3288SOL     OW 9881   3.803   1.240   2.515
 3288SOL    HW1 9882   3.802   1.193   2.603
 3288SOL    HW2 9883   3.885   1.212   2.464
 3289SOL     OW 9884   4.396   1.391   3.486
 3289SOL    HW1 9885   4.318   1.341   3.524
 3289SOL    HW2 9886   4.393   1.486   3.517
 3290SOL     OW 9887   4.152   0.424   2.382
 3290SOL    HW1 9888   4.182   0.352   2.320
 3290SOL    HW2 9889   4.113   0.384   2.465
 3291SOL     OW 9890   4.041   0.547   3.142
 3291SOL    HW1 9891   4.079   0.488   3.214
 3291SOL    HW2 9892   4.081   0.521   3.054
 3292SOL     OW 9893   4.536   1.586   2.549
 3292SOL    HW1 9894   4.568   1.596   2.455
 3292SOL    HW2 9895   4.457   1.524   2.551
 3293SOL     OW 9896   4.725   0.034   3.016
 3293SOL    HW1 9897   4.662  -0.038   2.985
 3293SOL    HW2 9898   4.818  -0.002   3.016
 3294SOL     OW 9899   4.494   1.330   2.163
 3294SOL    HW1 9900   4.448   1.243   2.180
 3294SOL    HW2 9901   4.585   1.327   2.204
 3295SOL     OW 9902   4.342   1.567   3.146
 3295SOL    HW1 9903   4.337   1.649   3.203
 3295SOL    HW2 9904   4.431   1.564   3.101
 3296SOL     OW 9905   5.076   0.052   2.030
 3296SOL    HW1 9906   5.111   0.011   1.946
 3296SOL    HW2 9907   4.986   0.014   2.050
 3297SOL     OW 9908   3.763   1.077   2.162
 3297SOL    HW1 9909   3.862   1.066   2.153
 3297SOL    HW2 9910   3.723   0.991   2.194
 3298SOL     OW 9911   4.599   1.646   2.199
 3298SOL    HW1 9912   4.522   1.611   2.145
 3298SOL    HW2 9913   4.567   1.717   2.261
 3299SOL     OW 9914   3.954   0.628   3.837
 3299SOL    HW1 9915   3.861   0.626   3.874
 3299SOL    HW2 9916   3.955   0.589   3.745
 3300SOL     OW 9917   3.949   0.275   4.720
 3300SOL    HW1 9918   3.984   0.258   4.812
 3300SOL    HW2 9919   3.861   0.230   4.708
 3301SOL     OW 9920   3.743   0.368   4.371
 3301SOL    HW1 9921   3.661   0.411   4.410
 3301SOL    HW2 9922   3.715   0.295   4.308
 3302SOL     OW 9923   4.293   1.275   4.889
 3302SOL    HW1 9924   4.200   1.268   4.852
 3302SOL    HW2 9925   4.304   1.364   4.933
 3303SOL     OW 9926   4.859   0.703   4.441
 3303SOL    HW1 9927   4.916   0.781   4.416
 3303SOL    HW2 9928   4.799   0.729   4.517
 3304SOL     OW 9929   4.492   1.144   4.747
 3304SOL    HW1 9930   4.414   1.161   4.807
 3304SOL    HW2 9931   4.526   1.231   4.711
 3305SOL     OW 9932   4.409   1.012   4.389
 3305SOL    HW1 9933   4.478   0.996   4.459
 3305SOL    HW2 9934   4.336   1.069   4.427
 3306SOL     OW 9935   4.059   1.435   4.785
 3306SOL    HW1 9936   3.981   1.404   4.732
 3306SOL    HW2 9937   4.117   1.493   4.728
 3307SOL     OW 9938   5.184   1.505   5.063
 3307SOL    HW1 9939   5.208   1.599   5.089
 3307SOL    HW2 9940   5.168   1.451   5.145
 3308SOL     OW 9941   3.955   1.713   4.207
 3308SOL    HW1 9942   3.989   1.790   4.261
 3308SOL    HW2 9943   3.999   1.713   4.117
 3309SOL     OW 9944   3.954   1.434   4.262
 3309SOL    HW1 9945   3.928   1.530   4.262
 3309SOL    HW2 9946   3.883   1.380   4.307
 3310SOL     OW 9947   3.964   1.091   4.610
 3310SOL    HW1 9948   3.978   1.007   4.662
 3310SOL    HW2 9949   3.909   1.155   4.665
 3311SOL     OW 9950   4.330   0.964   3.847
 3311SOL    HW1 9951   4.337   1.048   3.793
 3311SOL    HW2 9952   4.376   0.977   3.935
 3312SOL     OW 9953   3.846   0.643   4.287
 3312SOL    HW1 9954   3.801   0.555   4.304
 3312SOL    HW2 9955   3.845   0.697   4.371
 3313SOL     OW 9956   3.751   1.596   3.841
 3313SOL    HW1 9957   3.732   1.500   3.862
 3313SOL    HW2 9958   3.718   1.654   3.916
 3314SOL     OW 9959   4.337   1.365   4.450
 3314SOL    HW1 9960   4.288   1.278   4.459
 3314SOL    HW2 9961   4.314   1.408   4.363
 3315SOL     OW 9962   4.533   0.004   4.226
 3315SOL    HW1 9963   4.573   0.095   4.217
 3315SOL    HW2 9964   4.433   0.012   4.232
 3316SOL     OW 9965   3.921   0.976   4.988
 3316SOL    HW1 9966   4.010   0.931   4.974
 3316SOL    HW2 9967   3.848   0.911   4.969
 3317SOL     OW 9968   4.322   0.729   3.994
 3317SOL    HW1 9969   4.346   0.798   3.926
 3317SOL    HW2 9970   4.244   0.762   4.048
 3318SOL     OW 9971   4.765   0.701   4.153
 3318SOL    HW1 9972   4.791   0.697   4.249
 3318SOL    HW2 9973   4.680   0.650   4.139
 3319SOL     OW 9974   3.800   0.811   4.513
 3319SOL    HW1 9975   3.899   0.799   4.522
 3319SOL    HW2 9976   3.776   0.906   4.534
 3320SOL     OW 9977   4.589   0.348   3.919
 3320SOL    HW1 9978   4.648   0.411   3.870
 3320SOL    HW2 9979   4.608   0.254   3.890
 3321SOL     OW 9980   4.274   0.196   4.609
 3321SOL    HW1 9981   4.269   0.191   4.709
 3321SOL    HW2 9982   4.276   0.292   4.580
 3322SOL     OW 9983   4.732   1.456   4.201
 3322SOL    HW1 9984   4.686   1.528   4.149
 3322SOL    HW2 9985   4.728   1.476   4.299
 3323SOL     OW 9986   4.075   1.801   4.577
 3323SOL    HW1 9987   4.125   1.715   4.583
 3323SOL    HW2 9988   4.140   1.878   4.574
 3324SOL     OW 9989   4.045   0.943   3.966
 3324SOL    HW1 9990   4.127   0.982   3.924
 3324SOL    HW2 9991   4.018   0.861   3.917
 3325SOL     OW 9992   4.835   1.776   3.961
 3325SOL    HW1 9993   4.775   1.714   4.011
 3325SOL    HW2 9994   4.866   1.732   3.876
 3326SOL     OW 9995   4.188   1.743   4.047
 3326SOL    HW1 9996   4.221   1.782   4.133
 3326SOL    HW2 9997   4.264   1.736   3.982
 3327SOL     OW 9998   3.973   1.785   4.965
 3327SOL    HW1 9999   4.030   1.720   5.015
 3327SOL    HW210000   3.957   1.752   4.872
 3328SOL     OW10001   4.664   1.698   4.628
 3328SOL    HW110002   4.744   1.641   4.649
 3328SOL    HW210003   4.615   1.658   4.551
 3329SOL     OW10004   4.106   0.700   4.204
 3329SOL    HW110005   4.151   0.610   4.201
 3329SOL    HW210006   4.012   0.689   4.237
 3330SOL     OW10007   4.338   0.122   3.841
 3330SOL    HW110008   4.436   0.100   3.848
 3330SOL    HW210009   4.307   0.105   3.748
 3331SOL     OW10010   4.527   1.402   4.648
 3331SOL    HW110011   4.617   1.416   4.606
 3331SOL    HW210012   4.456   1.404   4.577
 3332SOL     OW10013   4.646   0.503   4.623
 3332SOL    HW110014   4.621   0.494   4.527
 3332SOL    HW210015   4.694   0.421   4.654
 3333SOL     OW10016   4.263   0.064   4.236
 3333SOL    HW110017   4.182   0.065   4.294
 3333SOL    HW210018   4.266   0.147   4.181
 3334SOL     OW10019   4.021   0.035   3.895
 3334SOL    HW110020   4.070   0.119   3.874
 3334SOL    HW210021   4.083  -0.030   3.940
 3335SOL     OW10022   4.659   0.236   4.204
 3335SOL    HW110023   4.611   0.277   4.126
 3335SOL    HW210024   4.758   0.234   4.185
 3336SOL     OW10025   4.951   1.570   4.517
 3336SOL    HW110026   4.972   1.644   4.452
 3336SOL    HW210027   5.019   1.570   4.590
 3337SOL     OW10028   4.183   1.152   4.465
 3337SOL    HW110029   4.112   1.125   4.530
 3337SOL    HW210030   4.157   1.124   4.372
 3338SOL     OW10031   4.995   1.797   4.315
 3338SOL    HW110032   5.039   1.861   4.251
 3338SOL    HW210033   4.945   1.849   4.385
 3339SOL     OW10034   4.756   0.549   3.740
 3339SOL    HW110035   4.715   0.631   3.701
 3339SOL    HW210036   4.820   0.575   3.813
 3340SOL     OW10037   4.590   0.454   4.366
 3340SOL    HW110038   4.558   0.526   4.304
 3340SOL    HW210039   4.614   0.373   4.313
 3341SOL     OW10040   4.741   0.039   4.477
 3341SOL    HW110041   4.669   0.044   4.408
 3341SOL    HW210042   4.717  -0.030   4.546
 3342SOL     OW10043   4.212   1.385   3.898
 3342SOL    HW110044   4.125   1.370   3.945
 3342SOL    HW210045   4.195   1.411   3.803
 3343SOL     OW10046   4.251   0.256   4.052
 3343SOL    HW110047   4.278   0.197   3.977
 3343SOL    HW210048   4.251   0.351   4.021
 3344SOL     OW10049   4.835   1.195   4.824
 3344SOL    HW110050   4.795   1.239   4.905
 3344SOL    HW210051   4.794   1.232   4.741
 3345SOL     OW10052   4.429   1.050   4.092
 3345SOL    HW110053   4.415   1.057   4.191
 3345SOL    HW210054   4.513   0.999   4.074
 3346SOL     OW10055   4.134   0.813   4.975
 3346SOL    HW110056   4.220   0.825   5.025
 3346SOL    HW210057   4.092   0.726   5.002
 3347SOL     OW10058   4.091   1.100   4.225
 3347SOL    HW110059   4.084   1.183   4.169
 3347SOL    HW210060   4.095   1.020   4.165
 3348SOL     OW10061   4.290   0.537   4.589
 3348SOL    HW110062   4.302   0.603   4.515
 3348SOL    HW210063   4.336   0.571   4.672
 3349SOL     OW10064   4.976   1.348   4.112
 3349SOL    HW110065   5.026   1.425   4.152
 3349SOL    HW210066   4.881   1.350   4.144
 3350SOL     OW10067   4.996   1.445   4.866
 3350SOL    HW110068   5.043   1.458   4.953
 3350SOL    HW210069   4.930   1.371   4.875
 3351SOL     OW10070   4.297   0.870   4.753
 3351SOL    HW110071   4.341   0.959   4.744
 3351SOL    HW210072   4.234   0.870   4.830
 3352SOL     OW10073   5.084   0.862   4.769
 3352SOL    HW110074   5.009   0.862   4.703
 3352SOL    HW210075   5.121   0.770   4.778
 3353SOL     OW10076   4.933   0.525   3.999
 3353SOL    HW110077   4.946   0.441   4.053
 3353SOL    HW210078   4.904   0.599   4.059
 3354SOL     OW10079   4.031   0.213   4.955
 3354SOL    HW110080   4.008   0.250   5.045
 3354SOL    HW210081   4.001   0.118   4.949
 3355SOL     OW10082   4.456   0.634   4.788
 3355SOL    HW110083   4.515   0.608   4.712
 3355SOL    HW210084   4.428   0.730   4.777
 3356SOL     OW10085   4.031   0.063   4.342
 3356SOL    HW110086   4.020   0.157   4.375
 3356SOL    HW210087   4.026   0.000   4.419
 3357SOL     OW10088   4.747   0.766   4.690
 3357SOL    HW110089   4.762   0.787   4.786
 3357SOL    HW210090   4.717   0.671   4.681
 3358SOL     OW10091   5.264   0.274   3.849
 3358SOL    HW110092   5.203   0.199   3.872
 3358SOL    HW210093   5.286   0.326   3.932
 3359SOL     OW10094   4.792   1.333   4.573
 3359SOL    HW110095   4.799   1.249   4.518
 3359SOL    HW210096   4.854   1.402   4.537
 3360SOL     OW10097   4.043   0.810   4.673
 3360SOL    HW110098   4.136   0.846   4.678
 3360SOL    HW210099   4.037   0.725   4.725
 3361SOL     OW10100   4.063   0.509   4.730
 3361SOL    HW110101   4.011   0.426   4.713
 3361SOL    HW210102   4.140   0.514   4.666
 3362SOL     OW10103   4.884   0.207   5.201
 3362SOL    HW110104   4.884   0.271   5.278
 3362SOL    HW210105   4.912   0.255   5.118
 3363SOL     OW10106   3.732   1.326   3.924
 3363SOL    HW110107   3.639   1.347   3.893
 3363SOL    HW210108   3.742   1.227   3.937
 3364SOL     OW10109   3.812   1.801   4.651
 3364SOL    HW110110   3.770   1.715   4.624
 3364SOL    HW210111   3.906   1.804   4.617
 3365SOL     OW10112   4.228   1.568   4.634
 3365SOL    HW110113   4.294   1.642   4.643
 3365SOL    HW210114   4.272   1.489   4.592
 3366SOL     OW10115   4.726   0.796   4.962
 3366SOL    HW110116   4.767   0.764   5.048
 3366SOL    HW210117   4.630   0.769   4.959
 3367SOL     OW10118   3.764   0.544   4.838
 3367SOL    HW110119   3.849   0.511   4.797
 3367SOL    HW210120   3.777   0.559   4.936
 3368SOL     OW10121   4.539   0.572   4.049
 3368SOL    HW110122   4.546   0.483   4.003
 3368SOL    HW210123   4.445   0.606   4.041
 3369SOL     OW10124   4.395   0.464   4.993
 3369SOL    HW110125   4.361   0.375   4.963
 3369SOL    HW210126   4.421   0.518   4.913
 3370SOL     OW10127   4.197   0.500   3.915
 3370SOL    HW110128   4.258   0.580   3.919
 3370SOL    HW210129   4.102   0.531   3.922
 3371SOL     OW10130   3.883   1.137   5.190
 3371SOL    HW110131   3.905   1.076   5.266
 3371SOL    HW210132   3.893   1.088   5.104
 3372SOL     OW10133   4.976   1.731   4.852
 3372SOL    HW110134   5.060   1.736   4.798
 3372SOL    HW210135   4.953   1.635   4.870
 3373SOL     OW10136   3.807   1.258   4.746
 3373SOL    HW110137   3.802   1.257   4.846
 3373SOL    HW210138   3.724   1.217   4.708
 3374SOL     OW10139   4.396   1.616   3.878
 3374SOL    HW110140   4.405   1.626   3.779
 3374SOL    HW210141   4.356   1.527   3.899
 3375SOL     OW10142   3.987   0.326   4.444
 3375SOL    HW110143   3.908   0.377   4.410
 3375SOL    HW210144   3.978   0.311   4.542
 3376SOL     OW10145   4.546   1.002   5.096
 3376SOL    HW110146   4.586   1.001   5.004
 3376SOL    HW210147   4.556   1.094   5.136
 3377SOL     OW10148   4.640   0.910   4.015
 3377SOL    HW110149   4.703   0.948   3.947
 3377SOL    HW210150   4.680   0.827   4.054
 3378SOL     OW10151   4.763   1.098   4.420
 3378SOL    HW110152   4.693   1.051   4.474
 3378SOL    HW210153   4.822   1.030   4.377
 3379SOL     OW10154   4.738   0.236   4.695
 3379SOL    HW110155   4.730   0.200   4.602
 3379SOL    HW210156   4.736   0.160   4.760
 3380SOL     OW10157   4.314   1.487   4.215
 3380SOL    HW110158   4.356   1.429   4.145
 3380SOL    HW210159   4.270   1.566   4.171
 3381SOL     OW10160   3.979   1.348   4.014
 3381SOL    HW110161   3.883   1.349   3.987
 3381SOL    HW210162   3.991   1.401   4.098
 3382SOL     OW10163   3.799   0.345   3.757
 3382SOL    HW110164   3.707   0.317   3.728
 3382SOL    HW210165   3.830   0.422   3.701
 3383SOL     OW10166   3.796   0.166   4.042
 3383SOL    HW110167   3.779   0.249   3.988
 3383SOL    HW210168   3.886   0.129   4.020
 3384SOL     OW10169   4.318   0.745   4.376
 3384SOL    HW110170   4.368   0.830   4.357
 3384SOL    HW210171   4.230   0.747   4.328
 3385SOL     OW10172   4.583   1.374   3.740
 3385SOL    HW110173   4.537   1.389   3.828
 3385SOL    HW210174   4.627   1.459   3.710
 3386SOL     OW10175   4.385   1.790   4.677
 3386SOL    HW110176   4.339   1.878   4.664
 3386SOL    HW210177   4.484   1.802   4.670
 3387SOL     OW10178   4.583   0.956   4.585
 3387SOL    HW110179   4.637   0.887   4.633
 3387SOL    HW210180   4.551   1.025   4.651
 3388SOL     OW10181   4.807   0.984   3.811
 3388SOL    HW110182   4.784   1.037   3.729
 3388SOL    HW210183   4.888   0.928   3.792
 3389SOL     OW10184   3.803   1.240   4.377
 3389SOL    HW110185   3.802   1.193   4.465
 3389SOL    HW210186   3.885   1.212   4.326
 3390SOL     OW10187   4.152   0.424   4.244
 3390SOL    HW110188   4.182   0.352   4.182
 3390SOL    HW210189   4.113   0.384   4.327
 3391SOL     OW10190   4.536   1.586   4.411
 3391SOL    HW110191   4.568   1.596   4.317
 3391SOL    HW210192   4.457   1.524   4.413
 3392SOL     OW10193   4.725   0.034   4.878
 3392SOL    HW110194   4.662  -0.038   4.847
 3392SOL    HW210195   4.818  -0.002   4.878
 3393SOL     OW10196   4.494   1.330   4.025
 3393SOL    HW110197   4.448   1.243   4.042
 3393SOL    HW210198   4.585   1.327   4.066
 3394SOL     OW10199   5.076   0.052   3.892
 3394SOL    HW110200   5.111   0.011   3.808
 3394SOL    HW210201   4.986   0.014   3.912
 3395SOL     OW10202   3.763   1.077   4.024
 3395SOL    HW110203   3.862   1.066   4.015
 3395SOL    HW210204   3.723   0.991   4.056
 3396SOL     OW10205   4.599   1.646   4.061
 3396SOL    HW110206   4.522   1.611   4.007
 3396SOL    HW210207   4.567   1.717   4.123
 3397SOL     OW10208   3.954   2.490   0.113
 3397SOL    HW110209   3.861   2.488   0.150
 3397SOL    HW210210   3.955   2.451   0.021
 3398SOL     OW10211   3.949   2.137   0.996
 3398SOL    HW110212   3.984   2.120   1.088
 3398SOL    HW210213   3.861   2.092   0.984
 3399SOL     OW10214   3.743   2.230   0.647
 3399SOL    HW110215   3.661   2.273   0.686
 3399SOL    HW210216   3.715   2.157   0.584
 3400SOL     OW10217   4.293   3.137   1.165
 3400SOL    HW110218   4.200   3.130   1.128
 3400SOL    HW210219   4.304   3.226   1.209
 3401SOL     OW10220   4.859   2.565   0.717
 3401SOL    HW110221   4.916   2.643   0.692
 3401SOL    HW210222   4.799   2.591   0.793
 3402SOL     OW10223   4.492   3.006   1.023
 3402SOL    HW110224   4.414   3.023   1.083
 3402SOL    HW210225   4.526   3.093   0.987
 3403SOL     OW10226   4.574   2.660   1.823
 3403SOL    HW110227   4.570   2.736   1.888
 3403SOL    HW210228   4.596   2.696   1.732
 3404SOL     OW10229   4.409   2.874   0.665
 3404SOL    HW110230   4.478   2.858   0.735
 3404SOL    HW210231   4.336   2.931   0.703
 3405SOL     OW10232   4.410   3.023   1.803
 3405SOL    HW110233   4.470   3.102   1.817
 3405SOL    HW210234   4.324   3.054   1.762
 3406SOL     OW10235   4.059   3.297   1.061
 3406SOL    HW110236   3.981   3.266   1.008
 3406SOL    HW210237   4.117   3.355   1.004
 3407SOL     OW10238   4.162   2.254   1.499
 3407SOL    HW110239   4.244   2.198   1.508
 3407SOL    HW210240   4.081   2.196   1.503
 3408SOL     OW10241   3.955   3.575   0.483
 3408SOL    HW110242   3.989   3.652   0.537
 3408SOL    HW210243   3.999   3.575   0.393
 3409SOL     OW10244   4.851   3.203   1.690
 3409SOL    HW110245   4.898   3.203   1.778
 3409SOL    HW210246   4.803   3.116   1.679
 3410SOL     OW10247   3.954   3.296   0.538
 3410SOL    HW110248   3.928   3.392   0.538
 3410SOL    HW210249   3.883   3.242   0.583
 3411SOL     OW10250   3.964   2.953   0.886
 3411SOL    HW110251   3.978   2.869   0.938
 3411SOL    HW210252   3.909   3.017   0.941
 3412SOL     OW10253   4.344   3.648   1.439
 3412SOL    HW110254   4.252   3.631   1.474
 3412SOL    HW210255   4.372   3.740   1.465
 3413SOL     OW10256   4.330   2.826   0.123
 3413SOL    HW110257   4.337   2.910   0.069
 3413SOL    HW210258   4.376   2.839   0.211
 3414SOL     OW10259   3.846   2.505   0.563
 3414SOL    HW110260   3.801   2.417   0.580
 3414SOL    HW210261   3.845   2.559   0.647
 3415SOL     OW10262   3.751   3.458   0.117
 3415SOL    HW110263   3.732   3.362   0.138
 3415SOL    HW210264   3.718   3.516   0.192
 3416SOL     OW10265   3.837   2.599   1.597
 3416SOL    HW110266   3.925   2.586   1.642
 3416SOL    HW210267   3.824   2.696   1.575
 3417SOL     OW10268   4.337   3.227   0.726
 3417SOL    HW110269   4.288   3.140   0.735
 3417SOL    HW210270   4.314   3.270   0.639
 3418SOL     OW10271   4.533   1.866   0.502
 3418SOL    HW110272   4.573   1.957   0.493
 3418SOL    HW210273   4.433   1.874   0.508
 3419SOL     OW10274   3.921   2.838   1.264
 3419SOL    HW110275   4.010   2.793   1.250
 3419SOL    HW210276   3.848   2.773   1.245
 3420SOL     OW10277   4.041   2.113   1.801
 3420SOL    HW110278   4.112   2.184   1.807
 3420SOL    HW210279   3.953   2.152   1.829
 3421SOL     OW10280   4.322   2.591   0.270
 3421SOL    HW110281   4.346   2.660   0.202
 3421SOL    HW210282   4.244   2.624   0.324
 3422SOL     OW10283   4.531   2.467   1.465
 3422SOL    HW110284   4.484   2.464   1.554
 3422SOL    HW210285   4.480   2.412   1.399
 3423SOL     OW10286   4.697   2.752   1.572
 3423SOL    HW110287   4.743   2.668   1.543
 3423SOL    HW210288   4.641   2.786   1.497
 3424SOL     OW10289   4.715   2.272   1.242
 3424SOL    HW110290   4.638   2.306   1.296
 3424SOL    HW210291   4.681   2.221   1.163
 3425SOL     OW10292   4.765   2.563   0.429
 3425SOL    HW110293   4.791   2.559   0.525
 3425SOL    HW210294   4.680   2.512   0.415
 3426SOL     OW10295   3.800   2.673   0.789
 3426SOL    HW110296   3.899   2.661   0.798
 3426SOL    HW210297   3.776   2.768   0.810
 3427SOL     OW10298   3.854   3.683   1.571
 3427SOL    HW110299   3.844   3.668   1.670
 3427SOL    HW210300   3.768   3.719   1.535
 3428SOL     OW10301   4.589   2.210   0.195
 3428SOL    HW110302   4.648   2.273   0.146
 3428SOL    HW210303   4.608   2.116   0.166
 3429SOL     OW10304   4.274   2.058   0.885
 3429SOL    HW110305   4.269   2.053   0.985
 3429SOL    HW210306   4.276   2.154   0.856
 3430SOL     OW10307   4.732   3.318   0.477
 3430SOL    HW110308   4.686   3.390   0.425
 3430SOL    HW210309   4.728   3.338   0.575
 3431SOL     OW10310   4.075   3.663   0.853
 3431SOL    HW110311   4.125   3.577   0.859
 3431SOL    HW210312   4.140   3.740   0.850
 3432SOL     OW10313   4.951   3.412   1.506
 3432SOL    HW110314   4.957   3.335   1.570
 3432SOL    HW210315   4.899   3.386   1.426
 3433SOL     OW10316   4.045   2.805   0.242
 3433SOL    HW110317   4.127   2.844   0.200
 3433SOL    HW210318   4.018   2.723   0.193
 3434SOL     OW10319   4.185   3.128   1.727
 3434SOL    HW110320   4.135   3.129   1.641
 3434SOL    HW210321   4.122   3.110   1.803
 3435SOL     OW10322   4.835   3.638   0.237
 3435SOL    HW110323   4.775   3.576   0.287
 3435SOL    HW210324   4.866   3.594   0.152
 3436SOL     OW10325   3.926   2.147   1.498
 3436SOL    HW110326   3.846   2.207   1.485
 3436SOL    HW210327   3.916   2.098   1.584
 3437SOL     OW10328   4.188   3.605   0.323
 3437SOL    HW110329   4.221   3.644   0.409
 3437SOL    HW210330   4.264   3.598   0.258
 3438SOL     OW10331   3.973   3.647   1.241
 3438SOL    HW110332   4.030   3.582   1.291
 3438SOL    HW210333   3.957   3.614   1.148
 3439SOL     OW10334   4.664   3.560   0.904
 3439SOL    HW110335   4.744   3.503   0.925
 3439SOL    HW210336   4.615   3.520   0.827
 3440SOL     OW10337   4.106   2.562   0.480
 3440SOL    HW110338   4.151   2.472   0.477
 3440SOL    HW210339   4.012   2.551   0.513
 3441SOL     OW10340   4.338   1.984   0.117
 3441SOL    HW110341   4.436   1.962   0.124
 3441SOL    HW210342   4.307   1.967   0.024
 3442SOL     OW10343   4.505   2.126   1.749
 3442SOL    HW110344   4.572   2.065   1.792
 3442SOL    HW210345   4.432   2.145   1.814
 3443SOL     OW10346   4.612   3.376   1.195
 3443SOL    HW110347   4.589   3.351   1.101
 3443SOL    HW210348   4.673   3.307   1.234
 3444SOL     OW10349   4.527   3.264   0.924
 3444SOL    HW110350   4.617   3.278   0.882
 3444SOL    HW210351   4.456   3.266   0.853
 3445SOL     OW10352   4.646   2.365   0.899
 3445SOL    HW110353   4.621   2.356   0.803
 3445SOL    HW210354   4.694   2.283   0.930
 3446SOL     OW10355   4.263   1.926   0.512
 3446SOL    HW110356   4.182   1.927   0.570
 3446SOL    HW210357   4.266   2.009   0.457
 3447SOL     OW10358   5.158   3.050   0.041
 3447SOL    HW110359   5.190   2.974   0.098
 3447SOL    HW210360   5.066   3.077   0.071
 3448SOL     OW10361   4.021   1.897   0.171
 3448SOL    HW110362   4.070   1.981   0.150
 3448SOL    HW210363   4.083   1.832   0.216
 3449SOL     OW10364   4.659   2.098   0.480
 3449SOL    HW110365   4.611   2.139   0.402
 3449SOL    HW210366   4.758   2.096   0.461
 3450SOL     OW10367   4.800   2.545   1.464
 3450SOL    HW110368   4.720   2.484   1.467
 3450SOL    HW210369   4.881   2.492   1.440
 3451SOL     OW10370   4.951   3.432   0.793
 3451SOL    HW110371   4.972   3.506   0.728
 3451SOL    HW210372   5.019   3.432   0.866
 3452SOL     OW10373   4.183   3.014   0.741
 3452SOL    HW110374   4.112   2.987   0.806
 3452SOL    HW210375   4.157   2.986   0.648
 3453SOL     OW10376   4.995   3.659   0.591
 3453SOL    HW110377   5.039   3.723   0.527
 3453SOL    HW210378   4.945   3.711   0.661
 3454SOL     OW10379   4.756   2.411   0.016
 3454SOL    HW110380   4.715   2.493  -0.023
 3454SOL    HW210381   4.820   2.437   0.089
 3455SOL     OW10382   3.802   2.418   1.386
 3455SOL    HW110383   3.894   2.417   1.345
 3455SOL    HW210384   3.796   2.492   1.453
 3456SOL     OW10385   4.285   2.084   1.147
 3456SOL    HW110386   4.323   2.000   1.184
 3456SOL    HW210387   4.197   2.103   1.191
 3457SOL     OW10388   4.590   2.316   0.642
 3457SOL    HW110389   4.558   2.388   0.580
 3457SOL    HW210390   4.614   2.235   0.589
 3458SOL     OW10391   4.741   1.901   0.753
 3458SOL    HW110392   4.669   1.906   0.684
 3458SOL    HW210393   4.717   1.832   0.822
 3459SOL     OW10394   4.212   3.247   0.174
 3459SOL    HW110395   4.125   3.232   0.221
 3459SOL    HW210396   4.195   3.273   0.079
 3460SOL     OW10397   4.251   2.118   0.328
 3460SOL    HW110398   4.278   2.059   0.253
 3460SOL    HW210399   4.251   2.213   0.297
 3461SOL     OW10400   4.788   3.209   1.340
 3461SOL    HW110401   4.708   3.186   1.395
 3461SOL    HW210402   4.871   3.183   1.389
 3462SOL     OW10403   4.835   3.057   1.100
 3462SOL    HW110404   4.795   3.101   1.181
 3462SOL    HW210405   4.794   3.094   1.017
 3463SOL     OW10406   4.639   1.951   1.402
 3463SOL    HW110407   4.664   1.931   1.307
 3463SOL    HW210408   4.711   2.007   1.444
 3464SOL     OW10409   4.704   2.978   1.719
 3464SOL    HW110410   4.605   2.984   1.729
 3464SOL    HW210411   4.727   2.898   1.663
 3465SOL     OW10412   4.429   2.912   0.368
 3465SOL    HW110413   4.415   2.919   0.467
 3465SOL    HW210414   4.513   2.861   0.350
 3466SOL     OW10415   4.134   2.675   1.251
 3466SOL    HW110416   4.220   2.687   1.301
 3466SOL    HW210417   4.092   2.588   1.278
 3467SOL     OW10418   3.788   3.426   1.331
 3467SOL    HW110419   3.742   3.508   1.297
 3467SOL    HW210420   3.886   3.445   1.340
 3468SOL     OW10421   4.091   2.962   0.501
 3468SOL    HW110422   4.084   3.045   0.445
 3468SOL    HW210423   4.095   2.882   0.441
 3469SOL     OW10424   4.290   2.399   0.865
 3469SOL    HW110425   4.302   2.465   0.791
 3469SOL    HW210426   4.336   2.433   0.948
 3470SOL     OW10427   4.976   3.210   0.388
 3470SOL    HW110428   5.026   3.287   0.428
 3470SOL    HW210429   4.881   3.212   0.420
 3471SOL     OW10430   4.078   3.372   1.329
 3471SOL    HW110431   4.057   3.328   1.242
 3471SOL    HW210432   4.175   3.398   1.332
 3472SOL     OW10433   4.126   2.613   1.598
 3472SOL    HW110434   4.194   2.668   1.551
 3472SOL    HW210435   4.166   2.525   1.625
 3473SOL     OW10436   4.737   1.967   1.770
 3473SOL    HW110437   4.743   2.052   1.718
 3473SOL    HW210438   4.769   1.891   1.713
 3474SOL     OW10439   4.228   1.912   1.740
 3474SOL    HW110440   4.186   1.855   1.670
 3474SOL    HW210441   4.162   1.981   1.772
 3475SOL     OW10442   4.297   2.732   1.029
 3475SOL    HW110443   4.341   2.821   1.020
 3475SOL    HW210444   4.234   2.732   1.106
 3476SOL     OW10445   5.084   2.724   1.045
 3476SOL    HW110446   5.009   2.724   0.979
 3476SOL    HW210447   5.121   2.632   1.054
 3477SOL     OW10448   4.933   2.387   0.275
 3477SOL    HW110449   4.946   2.303   0.329
 3477SOL    HW210450   4.904   2.461   0.335
 3478SOL     OW10451   4.031   2.075   1.231
 3478SOL    HW110452   4.008   2.112   1.321
 3478SOL    HW210453   4.001   1.980   1.225
 3479SOL     OW10454   3.761   3.172   1.282
 3479SOL    HW110455   3.814   3.123   1.350
 3479SOL    HW210456   3.783   3.270   1.287
 3480SOL     OW10457   4.456   2.496   1.064
 3480SOL    HW110458   4.515   2.470   0.988
 3480SOL    HW210459   4.428   2.592   1.053
 3481SOL     OW10460   4.031   1.925   0.618
 3481SOL    HW110461   4.020   2.019   0.651
 3481SOL    HW210462   4.026   1.862   0.695
 3482SOL     OW10463   4.747   2.628   0.966
 3482SOL    HW110464   4.762   2.649   1.062
 3482SOL    HW210465   4.717   2.533   0.957
 3483SOL     OW10466   4.704   3.435   1.700
 3483SOL    HW110467   4.684   3.479   1.612
 3483SOL    HW210468   4.743   3.344   1.684
 3484SOL     OW10469   4.074   2.760   1.804
 3484SOL    HW110470   4.150   2.804   1.852
 3484SOL    HW210471   4.109   2.713   1.722
 3485SOL     OW10472   4.792   3.195   0.849
 3485SOL    HW110473   4.799   3.111   0.794
 3485SOL    HW210474   4.854   3.264   0.813
 3486SOL     OW10475   4.043   2.672   0.949
 3486SOL    HW110476   4.136   2.708   0.954
 3486SOL    HW210477   4.037   2.587   1.001
 3487SOL     OW10478   4.063   2.371   1.006
 3487SOL    HW110479   4.011   2.288   0.989
 3487SOL    HW210480   4.140   2.376   0.942
 3488SOL     OW10481   4.862   2.242   1.678
 3488SOL    HW110482   4.817   2.305   1.742
 3488SOL    HW210483   4.955   2.273   1.661
 3489SOL     OW10484   4.884   2.069   1.477
 3489SOL    HW110485   4.884   2.133   1.554
 3489SOL    HW210486   4.912   2.117   1.394
 3490SOL     OW10487   3.732   3.188   0.200
 3490SOL    HW110488   3.639   3.209   0.169
 3490SOL    HW210489   3.742   3.089   0.213
 3491SOL     OW10490   3.812   3.663   0.927
 3491SOL    HW110491   3.770   3.577   0.900
 3491SOL    HW210492   3.906   3.666   0.893
 3492SOL     OW10493   4.228   3.430   0.910
 3492SOL    HW110494   4.294   3.504   0.919
 3492SOL    HW210495   4.272   3.351   0.868
 3493SOL     OW10496   4.726   2.658   1.238
 3493SOL    HW110497   4.767   2.626   1.324
 3493SOL    HW210498   4.630   2.631   1.235
 3494SOL     OW10499   3.764   2.406   1.114
 3494SOL    HW110500   3.849   2.373   1.073
 3494SOL    HW210501   3.777   2.421   1.212
 3495SOL     OW10502   3.913   2.382   1.722
 3495SOL    HW110503   3.972   2.342   1.652
 3495SOL    HW210504   3.855   2.453   1.681
 3496SOL     OW10505   4.539   2.434   0.325
 3496SOL    HW110506   4.546   2.345   0.279
 3496SOL    HW210507   4.445   2.468   0.317
 3497SOL     OW10508   3.976   3.426   1.744
 3497SOL    HW110509   3.946   3.483   1.820
 3497SOL    HW210510   3.969   3.329   1.770
 3498SOL     OW10511   4.395   2.326   1.269
 3498SOL    HW110512   4.361   2.237   1.239
 3498SOL    HW210513   4.421   2.380   1.189
 3499SOL     OW10514   4.654   3.540   1.465
 3499SOL    HW110515   4.630   3.522   1.370
 3499SOL    HW210516   4.684   3.634   1.475
 3500SOL     OW10517   4.197   2.362   0.191
 3500SOL    HW110518   4.258   2.442   0.195
 3500SOL    HW210519   4.102   2.393   0.198
 3501SOL     OW10520   3.883   2.999   1.466
 3501SOL    HW110521   3.905   2.938   1.542
 3501SOL    HW210522   3.893   2.950   1.380
 3502SOL     OW10523   4.976   3.593   1.128
 3502SOL    HW110524   5.060   3.598   1.074
 3502SOL    HW210525   4.953   3.497   1.146
 3503SOL     OW10526   3.807   3.120   1.022
 3503SOL    HW110527   3.802   3.119   1.122
 3503SOL    HW210528   3.724   3.079   0.984
 3504SOL     OW10529   4.412   3.524   1.716
 3504SOL    HW110530   4.356   3.605   1.725
 3504SOL    HW210531   4.464   3.528   1.630
 3505SOL     OW10532   4.627   1.948   0.133
 3505SOL    HW110533   4.678   1.949   0.047
 3505SOL    HW210534   4.683   1.906   0.204
 3506SOL     OW10535   3.854   3.656   1.851
 3506SOL    HW110536   3.813   3.582   1.904
 3506SOL    HW210537   3.918   3.707   1.909
 3507SOL     OW10538   4.554   3.135   1.422
 3507SOL    HW110539   4.549   3.168   1.517
 3507SOL    HW210540   4.468   3.154   1.376
 3508SOL     OW10541   4.396   3.478   0.154
 3508SOL    HW110542   4.405   3.488   0.055
 3508SOL    HW210543   4.356   3.389   0.175
 3509SOL     OW10544   3.987   2.188   0.720
 3509SOL    HW110545   3.908   2.239   0.686
 3509SOL    HW210546   3.978   2.173   0.818
 3510SOL     OW10547   4.546   2.864   1.372
 3510SOL    HW110548   4.586   2.863   1.280
 3510SOL    HW210549   4.556   2.956   1.412
 3511SOL     OW10550   4.640   2.772   0.291
 3511SOL    HW110551   4.703   2.810   0.223
 3511SOL    HW210552   4.680   2.689   0.330
 3512SOL     OW10553   4.096   3.150   1.490
 3512SOL    HW110554   4.083   3.243   1.456
 3512SOL    HW210555   4.012   3.098   1.477
 3513SOL     OW10556   4.763   2.960   0.696
 3513SOL    HW110557   4.693   2.913   0.750
 3513SOL    HW210558   4.822   2.892   0.653
 3514SOL     OW10559   4.738   2.098   0.971
 3514SOL    HW110560   4.730   2.062   0.878
 3514SOL    HW210561   4.736   2.022   1.036
 3515SOL     OW10562   4.314   3.349   0.491
 3515SOL    HW110563   4.356   3.291   0.421
 3515SOL    HW210564   4.270   3.428   0.447
 3516SOL     OW10565   3.979   3.210   0.290
 3516SOL    HW110566   3.883   3.211   0.263
 3516SOL    HW210567   3.991   3.263   0.374
 3517SOL     OW10568   3.829   2.875   1.726
 3517SOL    HW110569   3.752   2.842   1.780
 3517SOL    HW210570   3.914   2.845   1.768
 3518SOL     OW10571   4.396   2.065   1.489
 3518SOL    HW110572   4.486   2.049   1.449
 3518SOL    HW210573   4.404   2.070   1.588
 3519SOL     OW10574   3.796   2.028   0.318
 3519SOL    HW110575   3.779   2.111   0.264
 3519SOL    HW210576   3.886   1.991   0.296
 3520SOL     OW10577   4.337   2.704   1.431
 3520SOL    HW110578   4.393   2.785   1.414
 3520SOL    HW210579   4.396   2.624   1.434
 3521SOL     OW10580   4.440   2.427   1.708
 3521SOL    HW110581   4.459   2.492   1.782
 3521SOL    HW210582   4.500   2.347   1.717
 3522SOL     OW10583   4.114   3.603   1.560
 3522SOL    HW110584   4.023   3.644   1.558
 3522SOL    HW210585   4.107   3.509   1.592
 3523SOL     OW10586   4.318   2.607   0.652
 3523SOL    HW110587   4.368   2.692   0.633
 3523SOL    HW210588   4.230   2.609   0.604
 3524SOL     OW10589   4.583   3.236   0.016
 3524SOL    HW110590   4.537   3.251   0.104
 3524SOL    HW210591   4.627   3.321  -0.014
 3525SOL     OW10592   4.385   3.652   0.953
 3525SOL    HW110593   4.339   3.740   0.940
 3525SOL    HW210594   4.484   3.664   0.946
 3526SOL     OW10595   4.583   2.818   0.861
 3526SOL    HW110596   4.637   2.749   0.909
 3526SOL    HW210597   4.551   2.887   0.927
 3527SOL     OW10598   4.807   2.846   0.087
 3527SOL    HW110599   4.784   2.899   0.005
 3527SOL    HW210600   4.888   2.790   0.068
 3528SOL     OW10601   3.945   3.176   1.844
 3528SOL    HW110602   3.880   3.103   1.823
 3528SOL    HW210603   3.949   3.190   1.942
 3529SOL     OW10604   3.803   3.102   0.653
 3529SOL    HW110605   3.802   3.055   0.741
 3529SOL    HW210606   3.885   3.074   0.602
 3530SOL     OW10607   4.396   3.253   1.624
 3530SOL    HW110608   4.318   3.203   1.662
 3530SOL    HW210609   4.393   3.348   1.655
 3531SOL     OW10610   4.152   2.286   0.520
 3531SOL    HW110611   4.182   2.214   0.458
 3531SOL    HW210612   4.113   2.246   0.603
 3532SOL     OW10613   4.041   2.409   1.280
 3532SOL    HW110614   4.079   2.350   1.352
 3532SOL    HW210615   4.081   2.383   1.192
 3533SOL     OW10616   4.536   3.448   0.687
 3533SOL    HW110617   4.568   3.458   0.593
 3533SOL    HW210618   4.457   3.386   0.689
 3534SOL     OW10619   4.725   1.896   1.154
 3534SOL    HW110620   4.662   1.824   1.123
 3534SOL    HW210621   4.818   1.860   1.154
 3535SOL     OW10622   4.494   3.192   0.301
 3535SOL    HW110623   4.448   3.105   0.318
 3535SOL    HW210624   4.585   3.189   0.342
 3536SOL     OW10625   4.342   3.429   1.284
 3536SOL    HW110626   4.337   3.511   1.341
 3536SOL    HW210627   4.431   3.426   1.239
 3537SOL     OW10628   5.076   1.914   0.168
 3537SOL    HW110629   5.111   1.873   0.084
 3537SOL    HW210630   4.986   1.876   0.188
 3538SOL     OW10631   4.599   3.508   0.337
 3538SOL    HW110632   4.522   3.473   0.283
 3538SOL    HW210633   4.567   3.579   0.399
 3539SOL     OW10634   3.954   2.490   1.975
 3539SOL    HW110635   3.861   2.488   2.012
 3539SOL    HW210636   3.955   2.451   1.883
 3540SOL     OW10637   3.949   2.137   2.858
 3540SOL    HW110638   3.984   2.120   2.950
 3540SOL    HW210639   3.861   2.092   2.846
 3541SOL     OW10640   3.743   2.230   2.509
 3541SOL    HW110641   3.661   2.273   2.548
 3541SOL    HW210642   3.715   2.157   2.446
 3542SOL     OW10643   4.293   3.137   3.027
 3542SOL    HW110644   4.200   3.130   2.990
 3542SOL    HW210645   4.304   3.226   3.071
 3543SOL     OW10646   4.859   2.565   2.579
 3543SOL    HW110647   4.916   2.643   2.554
 3543SOL    HW210648   4.799   2.591   2.655
 3544SOL     OW10649   4.492   3.006   2.885
 3544SOL    HW110650   4.414   3.023   2.945
 3544SOL    HW210651   4.526   3.093   2.849
 3545SOL     OW10652   4.574   2.660   3.685
 3545SOL    HW110653   4.570   2.736   3.750
 3545SOL    HW210654   4.596   2.696   3.594
 3546SOL     OW10655   4.409   2.874   2.527
 3546SOL    HW110656   4.478   2.858   2.597
 3546SOL    HW210657   4.336   2.931   2.565
 3547SOL     OW10658   4.410   3.023   3.665
 3547SOL    HW110659   4.470   3.102   3.679
 3547SOL    HW210660   4.324   3.054   3.624
 3548SOL     OW10661   4.059   3.297   2.923
 3548SOL    HW110662   3.981   3.266   2.870
 3548SOL    HW210663   4.117   3.355   2.866
 3549SOL     OW10664   4.162   2.254   3.361
 3549SOL    HW110665   4.244   2.198   3.370
 3549SOL    HW210666   4.081   2.196   3.365
 3550SOL     OW10667   3.955   3.575   2.345
 3550SOL    HW110668   3.989   3.652   2.399
 3550SOL    HW210669   3.999   3.575   2.255
 3551SOL     OW10670   4.851   3.203   3.552
 3551SOL    HW110671   4.898   3.203   3.640
 3551SOL    HW210672   4.803   3.116   3.541
 3552SOL     OW10673   3.954   3.296   2.400
 3552SOL    HW110674   3.928   3.392   2.400
 3552SOL    HW210675   3.883   3.242   2.445
 3553SOL     OW10676   3.964   2.953   2.748
 3553SOL    HW110677   3.978   2.869   2.800
 3553SOL    HW210678   3.909   3.017   2.803
 3554SOL     OW10679   4.344   3.648   3.301
 3554SOL    HW110680   4.252   3.631   3.336
 3554SOL    HW210681   4.372   3.740   3.327
 3555SOL     OW10682   4.330   2.826   1.985
 3555SOL    HW110683   4.337   2.910   1.931
 3555SOL    HW210684   4.376   2.839   2.073
 3556SOL     OW10685   3.846   2.505   2.425
 3556SOL    HW110686   3.801   2.417   2.442
 3556SOL    HW210687   3.845   2.559   2.509
 3557SOL     OW10688   3.751   3.458   1.979
 3557SOL    HW110689   3.732   3.362   2.000
 3557SOL    HW210690   3.718   3.516   2.054
 3558SOL     OW10691   3.837   2.599   3.459
 3558SOL    HW110692   3.925   2.586   3.504
 3558SOL    HW210693   3.824   2.696   3.437
 3559SOL     OW10694   4.337   3.227   2.588
 3559SOL    HW110695   4.288   3.140   2.597
 3559SOL    HW210696   4.314   3.270   2.501
 3560SOL     OW10697   4.533   1.866   2.364
 3560SOL    HW110698   4.573   1.957   2.355
 3560SOL    HW210699   4.433   1.874   2.370
 3561SOL     OW10700   3.921   2.838   3.126
 3561SOL    HW110701   4.010   2.793   3.112
 3561SOL    HW210702   3.848   2.773   3.107
 3562SOL     OW10703   4.041   2.113   3.663
 3562SOL    HW110704   4.112   2.184   3.669
 3562SOL    HW210705   3.953   2.152   3.691
 3563SOL     OW10706   4.322   2.591   2.132
 3563SOL    HW110707   4.346   2.660   2.064
 3563SOL    HW210708   4.244   2.624   2.186
 3564SOL     OW10709   4.531   2.467   3.327
 3564SOL    HW110710   4.484   2.464   3.416
 3564SOL    HW210711   4.480   2.412   3.261
 3565SOL     OW10712   4.697   2.752   3.434
 3565SOL    HW110713   4.743   2.668   3.405
 3565SOL    HW210714   4.641   2.786   3.359
 3566SOL     OW10715   4.715   2.272   3.104
 3566SOL    HW110716   4.638   2.306   3.158
 3566SOL    HW210717   4.681   2.221   3.025
 3567SOL     OW10718   4.765   2.563   2.291
 3567SOL    HW110719   4.791   2.559   2.387
 3567SOL    HW210720   4.680   2.512   2.277
 3568SOL     OW10721   3.800   2.673   2.651
 3568SOL    HW110722   3.899   2.661   2.660
 3568SOL    HW210723   3.776   2.768   2.672
 3569SOL     OW10724   3.854   3.683   3.433
 3569SOL    HW110725   3.844   3.668   3.532
 3569SOL    HW210726   3.768   3.719   3.397
 3570SOL     OW10727   4.589   2.210   2.057
 3570SOL    HW110728   4.648   2.273   2.008
 3570SOL    HW210729   4.608   2.116   2.028
 3571SOL     OW10730   4.274   2.058   2.747
 3571SOL    HW110731   4.269   2.053   2.847
 3571SOL    HW210732   4.276   2.154   2.718
 3572SOL     OW10733   4.732   3.318   2.339
 3572SOL    HW110734   4.686   3.390   2.287
 3572SOL    HW210735   4.728   3.338   2.437
 3573SOL     OW10736   4.075   3.663   2.715
 3573SOL    HW110737   4.125   3.577   2.721
 3573SOL    HW210738   4.140   3.740   2.712
 3574SOL     OW10739   4.951   3.412   3.368
 3574SOL    HW110740   4.957   3.335   3.432
 3574SOL    HW210741   4.899   3.386   3.288
 3575SOL     OW10742   4.045   2.805   2.104
 3575SOL    HW110743   4.127   2.844   2.062
 3575SOL    HW210744   4.018   2.723   2.055
 3576SOL     OW10745   4.185   3.128   3.589
 3576SOL    HW110746   4.135   3.129   3.503
 3576SOL    HW210747   4.122   3.110   3.665
 3577SOL     OW10748   4.835   3.638   2.099
 3577SOL    HW110749   4.775   3.576   2.149
 3577SOL    HW210750   4.866   3.594   2.014
 3578SOL     OW10751   3.926   2.147   3.360
 3578SOL    HW110752   3.846   2.207   3.347
 3578SOL    HW210753   3.916   2.098   3.446
 3579SOL     OW10754   4.188   3.605   2.185
 3579SOL    HW110755   4.221   3.644   2.271
 3579SOL    HW210756   4.264   3.598   2.120
 3580SOL     OW10757   3.973   3.647   3.103
 3580SOL    HW110758   4.030   3.582   3.153
 3580SOL    HW210759   3.957   3.614   3.010
 3581SOL     OW10760   4.664   3.560   2.766
 3581SOL    HW110761   4.744   3.503   2.787
 3581SOL    HW210762   4.615   3.520   2.689
 3582SOL     OW10763   4.106   2.562   2.342
 3582SOL    HW110764   4.151   2.472   2.339
 3582SOL    HW210765   4.012   2.551   2.375
 3583SOL     OW10766   4.338   1.984   1.979
 3583SOL    HW110767   4.436   1.962   1.986
 3583SOL    HW210768   4.307   1.967   1.886
 3584SOL     OW10769   4.505   2.126   3.611
 3584SOL    HW110770   4.572   2.065   3.654
 3584SOL    HW210771   4.432   2.145   3.676
 3585SOL     OW10772   4.612   3.376   3.057
 3585SOL    HW110773   4.589   3.351   2.963
 3585SOL    HW210774   4.673   3.307   3.096
 3586SOL     OW10775   4.527   3.264   2.786
 3586SOL    HW110776   4.617   3.278   2.744
 3586SOL    HW210777   4.456   3.266   2.715
 3587SOL     OW10778   4.646   2.365   2.761
 3587SOL    HW110779   4.621   2.356   2.665
 3587SOL    HW210780   4.694   2.283   2.792
 3588SOL     OW10781   4.263   1.926   2.374
 3588SOL    HW110782   4.182   1.927   2.432
 3588SOL    HW210783   4.266   2.009   2.319
 3589SOL     OW10784   4.021   1.897   2.033
 3589SOL    HW110785   4.070   1.981   2.012
 3589SOL    HW210786   4.083   1.832   2.078
 3590SOL     OW10787   4.659   2.098   2.342
 3590SOL    HW110788   4.611   2.139   2.264
 3590SOL    HW210789   4.758   2.096   2.323
 3591SOL     OW10790   4.800   2.545   3.326
 3591SOL    HW110791   4.720   2.484   3.329
 3591SOL    HW210792   4.881   2.492   3.302
 3592SOL     OW10793   4.951   3.432   2.655
 3592SOL    HW110794   4.972   3.506   2.590
 3592SOL    HW210795   5.019   3.432   2.728
 3593SOL     OW10796   4.183   3.014   2.603
 3593SOL    HW110797   4.112   2.987   2.668
 3593SOL    HW210798   4.157   2.986   2.510
 3594SOL     OW10799   4.995   3.659   2.453
 3594SOL    HW110800   5.039   3.723   2.389
 3594SOL    HW210801   4.945   3.711   2.523
 3595SOL     OW10802   4.756   2.411   1.878
 3595SOL    HW110803   4.715   2.493   1.839
 3595SOL    HW210804   4.820   2.437   1.951
 3596SOL     OW10805   3.802   2.418   3.248
 3596SOL    HW110806   3.894   2.417   3.207
 3596SOL    HW210807   3.796   2.492   3.315
 3597SOL     OW10808   4.285   2.084   3.009
 3597SOL    HW110809   4.323   2.000   3.046
 3597SOL    HW210810   4.197   2.103   3.053
 3598SOL     OW10811   4.590   2.316   2.504
 3598SOL    HW110812   4.558   2.388   2.442
 3598SOL    HW210813   4.614   2.235   2.451
 3599SOL     OW10814   4.741   1.901   2.615
 3599SOL    HW110815   4.669   1.906   2.546
 3599SOL    HW210816   4.717   1.832   2.684
 3600SOL     OW10817   4.212   3.247   2.036
 3600SOL    HW110818   4.125   3.232   2.083
 3600SOL    HW210819   4.195   3.273   1.941
 3601SOL     OW10820   4.251   2.118   2.190
 3601SOL    HW110821   4.278   2.059   2.115
 3601SOL    HW210822   4.251   2.213   2.159
 3602SOL     OW10823   4.788   3.209   3.202
 3602SOL    HW110824   4.708   3.186   3.257
 3602SOL    HW210825   4.871   3.183   3.251
 3603SOL     OW10826   4.835   3.057   2.962
 3603SOL    HW110827   4.795   3.101   3.043
 3603SOL    HW210828   4.794   3.094   2.879
 3604SOL     OW10829   4.639   1.951   3.264
 3604SOL    HW110830   4.664   1.931   3.169
 3604SOL    HW210831   4.711   2.007   3.306
 3605SOL     OW10832   4.704   2.978   3.581
 3605SOL    HW110833   4.605   2.984   3.591
 3605SOL    HW210834   4.727   2.898   3.525
 3606SOL     OW10835   4.429   2.912   2.230
 3606SOL    HW110836   4.415   2.919   2.329
 3606SOL    HW210837   4.513   2.861   2.212
 3607SOL     OW10838   4.134   2.675   3.113
 3607SOL    HW110839   4.220   2.687   3.163
 3607SOL    HW210840   4.092   2.588   3.140
 3608SOL     OW10841   3.788   3.426   3.193
 3608SOL    HW110842   3.742   3.508   3.159
 3608SOL    HW210843   3.886   3.445   3.202
 3609SOL     OW10844   4.091   2.962   2.363
 3609SOL    HW110845   4.084   3.045   2.307
 3609SOL    HW210846   4.095   2.882   2.303
 3610SOL     OW10847   4.290   2.399   2.727
 3610SOL    HW110848   4.302   2.465   2.653
 3610SOL    HW210849   4.336   2.433   2.810
 3611SOL     OW10850   4.976   3.210   2.250
 3611SOL    HW110851   5.026   3.287   2.290
 3611SOL    HW210852   4.881   3.212   2.282
 3612SOL     OW10853   4.078   3.372   3.191
 3612SOL    HW110854   4.057   3.328   3.104
 3612SOL    HW210855   4.175   3.398   3.194
 3613SOL     OW10856   4.126   2.613   3.460
 3613SOL    HW110857   4.194   2.668   3.413
 3613SOL    HW210858   4.166   2.525   3.487
 3614SOL     OW10859   4.737   1.967   3.632
 3614SOL    HW110860   4.743   2.052   3.580
 3614SOL    HW210861   4.769   1.891   3.575
 3615SOL     OW10862   4.228   1.912   3.602
 3615SOL    HW110863   4.186   1.855   3.532
 3615SOL    HW210864   4.162   1.981   3.634
 3616SOL     OW10865   4.297   2.732   2.891
 3616SOL    HW110866   4.341   2.821   2.882
 3616SOL    HW210867   4.234   2.732   2.968
 3617SOL     OW10868   5.084   2.724   2.907
 3617SOL    HW110869   5.009   2.724   2.841
 3617SOL    HW210870   5.121   2.632   2.916
 3618SOL     OW10871   4.933   2.387   2.137
 3618SOL    HW110872   4.946   2.303   2.191
 3618SOL    HW210873   4.904   2.461   2.197
 3619SOL     OW10874   4.031   2.075   3.093
 3619SOL    HW110875   4.008   2.112   3.183
 3619SOL    HW210876   4.001   1.980   3.087
 3620SOL     OW10877   3.761   3.172   3.144
 3620SOL    HW110878   3.814   3.123   3.212
 3620SOL    HW210879   3.783   3.270   3.149
 3621SOL     OW10880   4.456   2.496   2.926
 3621SOL    HW110881   4.515   2.470   2.850
 3621SOL    HW210882   4.428   2.592   2.915
 3622SOL     OW10883   4.031   1.925   2.480
 3622SOL    HW110884   4.020   2.019   2.513
 3622SOL    HW210885   4.026   1.862   2.557
 3623SOL     OW10886   4.747   2.628   2.828
 3623SOL    HW110887   4.762   2.649   2.924
 3623SOL    HW210888   4.717   2.533   2.819
 3624SOL     OW10889   4.704   3.435   3.562
 3624SOL    HW110890   4.684   3.479   3.474
 3624SOL    HW210891   4.743   3.344   3.546
 3625SOL     OW10892   4.074   2.760   3.666
 3625SOL    HW110893   4.150   2.804   3.714
 3625SOL    HW210894   4.109   2.713   3.584
 3626SOL     OW10895   5.264   2.136   1.987
 3626SOL    HW110896   5.203   2.061   2.010
 3626SOL    HW210897   5.286   2.188   2.070
 3627SOL     OW10898   4.792   3.195   2.711
 3627SOL    HW110899   4.799   3.111   2.656
 3627SOL    HW210900   4.854   3.264   2.675
 3628SOL     OW10901   4.043   2.672   2.811
 3628SOL    HW110902   4.136   2.708   2.816
 3628SOL    HW210903   4.037   2.587   2.863
 3629SOL     OW10904   4.063   2.371   2.868
 3629SOL    HW110905   4.011   2.288   2.851
 3629SOL    HW210906   4.140   2.376   2.804
 3630SOL     OW10907   4.862   2.242   3.540
 3630SOL    HW110908   4.817   2.305   3.604
 3630SOL    HW210909   4.955   2.273   3.523
 3631SOL     OW10910   4.884   2.069   3.339
 3631SOL    HW110911   4.884   2.133   3.416
 3631SOL    HW210912   4.912   2.117   3.256
 3632SOL     OW10913   3.732   3.188   2.062
 3632SOL    HW110914   3.639   3.209   2.031
 3632SOL    HW210915   3.742   3.089   2.075
 3633SOL     OW10916   3.812   3.663   2.789
 3633SOL    HW110917   3.770   3.577   2.762
 3633SOL    HW210918   3.906   3.666   2.755
 3634SOL     OW10919   4.228   3.430   2.772
 3634SOL    HW110920   4.294   3.504   2.781
 3634SOL    HW210921   4.272   3.351   2.730
 3635SOL     OW10922   4.726   2.658   3.100
 3635SOL    HW110923   4.767   2.626   3.186
 3635SOL    HW210924   4.630   2.631   3.097
 3636SOL     OW10925   3.764   2.406   2.976
 3636SOL    HW110926   3.849   2.373   2.935
 3636SOL    HW210927   3.777   2.421   3.074
 3637SOL     OW10928   3.913   2.382   3.584
 3637SOL    HW110929   3.972   2.342   3.514
 3637SOL    HW210930   3.855   2.453   3.543
 3638SOL     OW10931   4.539   2.434   2.187
 3638SOL    HW110932   4.546   2.345   2.141
 3638SOL    HW210933   4.445   2.468   2.179
 3639SOL     OW10934   3.976   3.426   3.606
 3639SOL    HW110935   3.946   3.483   3.682
 3639SOL    HW210936   3.969   3.329   3.632
 3640SOL     OW10937   4.395   2.326   3.131
 3640SOL    HW110938   4.361   2.237   3.101
 3640SOL    HW210939   4.421   2.380   3.051
 3641SOL     OW10940   4.654   3.540   3.327
 3641SOL    HW110941   4.630   3.522   3.232
 3641SOL    HW210942   4.684   3.634   3.337
 3642SOL     OW10943   4.197   2.362   2.053
 3642SOL    HW110944   4.258   2.442   2.057
 3642SOL    HW210945   4.102   2.393   2.060
 3643SOL     OW10946   3.883   2.999   3.328
 3643SOL    HW110947   3.905   2.938   3.404
 3643SOL    HW210948   3.893   2.950   3.242
 3644SOL     OW10949   4.976   3.593   2.990
 3644SOL    HW110950   5.060   3.598   2.936
 3644SOL    HW210951   4.953   3.497   3.008
 3645SOL     OW10952   3.807   3.120   2.884
 3645SOL    HW110953   3.802   3.119   2.984
 3645SOL    HW210954   3.724   3.079   2.846
 3646SOL     OW10955   4.412   3.524   3.578
 3646SOL    HW110956   4.356   3.605   3.587
 3646SOL    HW210957   4.464   3.528   3.492
 3647SOL     OW10958   3.854   3.656   3.713
 3647SOL    HW110959   3.813   3.582   3.766
 3647SOL    HW210960   3.918   3.707   3.771
 3648SOL     OW10961   4.554   3.135   3.284
 3648SOL    HW110962   4.549   3.168   3.379
 3648SOL    HW210963   4.468   3.154   3.238
 3649SOL     OW10964   4.396   3.478   2.016
 3649SOL    HW110965   4.405   3.488   1.917
 3649SOL    HW210966   4.356   3.389   2.037
 3650SOL     OW10967   3.987   2.188   2.582
 3650SOL    HW110968   3.908   2.239   2.548
 3650SOL    HW210969   3.978   2.173   2.680
 3651SOL     OW10970   4.546   2.864   3.234
 3651SOL    HW110971   4.586   2.863   3.142
 3651SOL    HW210972   4.556   2.956   3.274
 3652SOL     OW10973   4.640   2.772   2.153
 3652SOL    HW110974   4.703   2.810   2.085
 3652SOL    HW210975   4.680   2.689   2.192
 3653SOL     OW10976   4.096   3.150   3.352
 3653SOL    HW110977   4.083   3.243   3.318
 3653SOL    HW210978   4.012   3.098   3.339
 3654SOL     OW10979   4.763   2.960   2.558
 3654SOL    HW110980   4.693   2.913   2.612
 3654SOL    HW210981   4.822   2.892   2.515
 3655SOL     OW10982   4.738   2.098   2.833
 3655SOL    HW110983   4.730   2.062   2.740
 3655SOL    HW210984   4.736   2.022   2.898
 3656SOL     OW10985   4.314   3.349   2.353
 3656SOL    HW110986   4.356   3.291   2.283
 3656SOL    HW210987   4.270   3.428   2.309
 3657SOL     OW10988   3.979   3.210   2.152
 3657SOL    HW110989   3.883   3.211   2.125
 3657SOL    HW210990   3.991   3.263   2.236
 3658SOL     OW10991   3.829   2.875   3.588
 3658SOL    HW110992   3.752   2.842   3.642
 3658SOL    HW210993   3.914   2.845   3.630
 3659SOL     OW10994   4.396   2.065   3.351
 3659SOL    HW110995   4.486   2.049   3.311
 3659SOL    HW210996   4.404   2.070   3.450
 3660SOL     OW10997   3.799   2.207   1.895
 3660SOL    HW110998   3.707   2.179   1.866
 3660SOL    HW210999   3.830   2.284   1.839
 3661SOL     OW11000   3.796   2.028   2.180
 3661SOL    HW111001   3.779   2.111   2.126
 3661SOL    HW211002   3.886   1.991   2.158
 3662SOL     OW11003   4.337   2.704   3.293
 3662SOL    HW111004   4.393   2.785   3.276
 3662SOL    HW211005   4.396   2.624   3.296
 3663SOL     OW11006   4.440   2.427   3.570
 3663SOL    HW111007   4.459   2.492   3.644
 3663SOL    HW211008   4.500   2.347   3.579
 3664SOL     OW11009   4.114   3.603   3.422
 3664SOL    HW111010   4.023   3.644   3.420
 3664SOL    HW211011   4.107   3.509   3.454
 3665SOL     OW11012   4.318   2.607   2.514
 3665SOL    HW111013   4.368   2.692   2.495
 3665SOL    HW211014   4.230   2.609   2.466
 3666SOL     OW11015   4.583   3.236   1.878
 3666SOL    HW111016   4.537   3.251   1.966
 3666SOL    HW211017   4.627   3.321   1.848
 3667SOL     OW11018   4.385   3.652   2.815
 3667SOL    HW111019   4.339   3.740   2.802
 3667SOL    HW211020   4.484   3.664   2.808
 3668SOL     OW11021   4.583   2.818   2.723
 3668SOL    HW111022   4.637   2.749   2.771
 3668SOL    HW211023   4.551   2.887   2.789
 3669SOL     OW11024   4.807   2.846   1.949
 3669SOL    HW111025   4.784   2.899   1.867
 3669SOL    HW211026   4.888   2.790   1.930
 3670SOL     OW11027   3.945   3.176   3.706
 3670SOL    HW111028   3.880   3.103   3.685
 3670SOL    HW211029   3.949   3.190   3.804
 3671SOL     OW11030   3.803   3.102   2.515
 3671SOL    HW111031   3.802   3.055   2.603
 3671SOL    HW211032   3.885   3.074   2.464
 3672SOL     OW11033   4.396   3.253   3.486
 3672SOL    HW111034   4.318   3.203   3.524
 3672SOL    HW211035   4.393   3.348   3.517
 3673SOL     OW11036   4.152   2.286   2.382
 3673SOL    HW111037   4.182   2.214   2.320
 3673SOL    HW211038   4.113   2.246   2.465
 3674SOL     OW11039   4.041   2.409   3.142
 3674SOL    HW111040   4.079   2.350   3.214
 3674SOL    HW211041   4.081   2.383   3.054
 3675SOL     OW11042   4.536   3.448   2.549
 3675SOL    HW111043   4.568   3.458   2.455
 3675SOL    HW211044   4.457   3.386   2.551
 3676SOL     OW11045   4.725   1.896   3.016
 3676SOL    HW111046   4.662   1.824   2.985
 3676SOL    HW211047   4.818   1.860   3.016
 3677SOL     OW11048   4.494   3.192   2.163
 3677SOL    HW111049   4.448   3.105   2.180
 3677SOL    HW211050   4.585   3.189   2.204
 3678SOL     OW11051   4.342   3.429   3.146
 3678SOL    HW111052   4.337   3.511   3.203
 3678SOL    HW211053   4.431   3.426   3.101
 3679SOL     OW11054   3.763   2.939   2.162
 3679SOL    HW111055   3.862   2.928   2.153
 3679SOL    HW211056   3.723   2.853   2.194
 3680SOL     OW11057   4.599   3.508   2.199
 3680SOL    HW111058   4.522   3.473   2.145
 3680SOL    HW211059   4.567   3.579   2.261
 3681SOL     OW11060   3.954   2.490   3.837
 3681SOL    HW111061   3.861   2.488   3.874
 3681SOL    HW211062   3.955   2.451   3.745
 3682SOL     OW11063   3.949   2.137   4.720
 3682SOL    HW111064   3.984   2.120   4.812
 3682SOL    HW211065   3.861   2.092   4.708
 3683SOL     OW11066   3.743   2.230   4.371
 3683SOL    HW111067   3.661   2.273   4.410
 3683SOL    HW211068   3.715   2.157   4.308
 3684SOL     OW11069   4.293   3.137   4.889
 3684SOL    HW111070   4.200   3.130   4.852
 3684SOL    HW211071   4.304   3.226   4.933
 3685SOL     OW11072   4.859   2.565   4.441
 3685SOL    HW111073   4.916   2.643   4.416
 3685SOL    HW211074   4.799   2.591   4.517
 3686SOL     OW11075   4.492   3.006   4.747
 3686SOL    HW111076   4.414   3.023   4.807
 3686SOL    HW211077   4.526   3.093   4.711
 3687SOL     OW11078   4.409   2.874   4.389
 3687SOL    HW111079   4.478   2.858   4.459
 3687SOL    HW211080   4.336   2.931   4.427
 3688SOL     OW11081   4.059   3.297   4.785
 3688SOL    HW111082   3.981   3.266   4.732
 3688SOL    HW211083   4.117   3.355   4.728
 3689SOL     OW11084   5.184   3.367   5.063
 3689SOL    HW111085   5.208   3.461   5.089
 3689SOL    HW211086   5.168   3.313   5.145
 3690SOL     OW11087   3.955   3.575   4.207
 3690SOL    HW111088   3.989   3.652   4.261
 3690SOL    HW211089   3.999   3.575   4.117
 3691SOL     OW11090   3.954   3.296   4.262
 3691SOL    HW111091   3.928   3.392   4.262
 3691SOL    HW211092   3.883   3.242   4.307
 3692SOL     OW11093   3.964   2.953   4.610
 3692SOL    HW111094   3.978   2.869   4.662
 3692SOL    HW211095   3.909   3.017   4.665
 3693SOL     OW11096   4.330   2.826   3.847
 3693SOL    HW111097   4.337   2.910   3.793
 3693SOL    HW211098   4.376   2.839   3.935
 3694SOL     OW11099   3.846   2.505   4.287
 3694SOL    HW111100   3.801   2.417   4.304
 3694SOL    HW211101   3.845   2.559   4.371
 3695SOL     OW11102   3.751   3.458   3.841
 3695SOL    HW111103   3.732   3.362   3.862
 3695SOL    HW211104   3.718   3.516   3.916
 3696SOL     OW11105   4.337   3.227   4.450
 3696SOL    HW111106   4.288   3.140   4.459
 3696SOL    HW211107   4.314   3.270   4.363
 3697SOL     OW11108   4.533   1.866   4.226
 3697SOL    HW111109   4.573   1.957   4.217
 3697SOL    HW211110   4.433   1.874   4.232
 3698SOL     OW11111   3.921   2.838   4.988
 3698SOL    HW111112   4.010   2.793   4.974
 3698SOL    HW211113   3.848   2.773   4.969
 3699SOL     OW11114   4.322   2.591   3.994
 3699SOL    HW111115   4.346   2.660   3.926
 3699SOL    HW211116   4.244   2.624   4.048
 3700SOL     OW11117   4.765   2.563   4.153
 3700SOL    HW111118   4.791   2.559   4.249
 3700SOL    HW211119   4.680   2.512   4.139
 3701SOL     OW11120   3.800   2.673   4.513
 3701SOL    HW111121   3.899   2.661   4.522
 3701SOL    HW211122   3.776   2.768   4.534
 3702SOL     OW11123   4.589   2.210   3.919
 3702SOL    HW111124   4.648   2.273   3.870
 3702SOL    HW211125   4.608   2.116   3.890
 3703SOL     OW11126   4.274   2.058   4.609
 3703SOL    HW111127   4.269   2.053   4.709
 3703SOL    HW211128   4.276   2.154   4.580
 3704SOL     OW11129   4.732   3.318   4.201
 3704SOL    HW111130   4.686   3.390   4.149
 3704SOL    HW211131   4.728   3.338   4.299
 3705SOL     OW11132   4.075   3.663   4.577
 3705SOL    HW111133   4.125   3.577   4.583
 3705SOL    HW211134   4.140   3.740   4.574
 3706SOL     OW11135   4.045   2.805   3.966
 3706SOL    HW111136   4.127   2.844   3.924
 3706SOL    HW211137   4.018   2.723   3.917
 3707SOL     OW11138   4.835   3.638   3.961
 3707SOL    HW111139   4.775   3.576   4.011
 3707SOL    HW211140   4.866   3.594   3.876
 3708SOL     OW11141   4.188   3.605   4.047
 3708SOL    HW111142   4.221   3.644   4.133
 3708SOL    HW211143   4.264   3.598   3.982
 3709SOL     OW11144   3.973   3.647   4.965
 3709SOL    HW111145   4.030   3.582   5.015
 3709SOL    HW211146   3.957   3.614   4.872
 3710SOL     OW11147   4.664   3.560   4.628
 3710SOL    HW111148   4.744   3.503   4.649
 3710SOL    HW211149   4.615   3.520   4.551
 3711SOL     OW11150   4.106   2.562   4.204
 3711SOL    HW111151   4.151   2.472   4.201
 3711SOL    HW211152   4.012   2.551   4.237
 3712SOL     OW11153   4.338   1.984   3.841
 3712SOL    HW111154   4.436   1.962   3.848
 3712SOL    HW211155   4.307   1.967   3.748
 3713SOL     OW11156   4.527   3.264   4.648
 3713SOL    HW111157   4.617   3.278   4.606
 3713SOL    HW211158   4.456   3.266   4.577
 3714SOL     OW11159   4.646   2.365   4.623
 3714SOL    HW111160   4.621   2.356   4.527
 3714SOL    HW211161   4.694   2.283   4.654
 3715SOL     OW11162   4.263   1.926   4.236
 3715SOL    HW111163   4.182   1.927   4.294
 3715SOL    HW211164   4.266   2.009   4.181
 3716SOL     OW11165   4.021   1.897   3.895
 3716SOL    HW111166   4.070   1.981   3.874
 3716SOL    HW211167   4.083   1.832   3.940
 3717SOL     OW11168   4.659   2.098   4.204
 3717SOL    HW111169   4.611   2.139   4.126
 3717SOL    HW211170   4.758   2.096   4.185
 3718SOL     OW11171   4.951   3.432   4.517
 3718SOL    HW111172   4.972   3.506   4.452
 3718SOL    HW211173   5.019   3.432   4.590
 3719SOL     OW11174   4.183   3.014   4.465
 3719SOL    HW111175   4.112   2.987   4.530
 3719SOL    HW211176   4.157   2.986   4.372
 3720SOL     OW11177   4.995   3.659   4.315
 3720SOL    HW111178   5.039   3.723   4.251
 3720SOL    HW211179   4.945   3.711   4.385
 3721SOL     OW11180   4.756   2.411   3.740
 3721SOL    HW111181   4.715   2.493   3.701
 3721SOL    HW211182   4.820   2.437   3.813
 3722SOL     OW11183   4.590   2.316   4.366
 3722SOL    HW111184   4.558   2.388   4.304
 3722SOL    HW211185   4.614   2.235   4.313
 3723SOL     OW11186   4.741   1.901   4.477
 3723SOL    HW111187   4.669   1.906   4.408
 3723SOL    HW211188   4.717   1.832   4.546
 3724SOL     OW11189   4.212   3.247   3.898
 3724SOL    HW111190   4.125   3.232   3.945
 3724SOL    HW211191   4.195   3.273   3.803
 3725SOL     OW11192   4.251   2.118   4.052
 3725SOL    HW111193   4.278   2.059   3.977
 3725SOL    HW211194   4.251   2.213   4.021
 3726SOL     OW11195   4.835   3.057   4.824
 3726SOL    HW111196   4.795   3.101   4.905
 3726SOL    HW211197   4.794   3.094   4.741
 3727SOL     OW11198   4.429   2.912   4.092
 3727SOL    HW111199   4.415   2.919   4.191
 3727SOL    HW211200   4.513   2.861   4.074
 3728SOL     OW11201   4.134   2.675   4.975
 3728SOL    HW111202   4.220   2.687   5.025
 3728SOL    HW211203   4.092   2.588   5.002
 3729SOL     OW11204   4.091   2.962   4.225
 3729SOL    HW111205   4.084   3.045   4.169
 3729SOL    HW211206   4.095   2.882   4.165
 3730SOL     OW11207   4.290   2.399   4.589
 3730SOL    HW111208   4.302   2.465   4.515
 3730SOL    HW211209   4.336   2.433   4.672
 3731SOL     OW11210   4.976   3.210   4.112
 3731SOL    HW111211   5.026   3.287   4.152
 3731SOL    HW211212   4.881   3.212   4.144
 3732SOL     OW11213   4.996   3.307   4.866
 3732SOL    HW111214   5.043   3.320   4.953
 3732SOL    HW211215   4.930   3.233   4.875
 3733SOL     OW11216   4.297   2.732   4.753
 3733SOL    HW111217   4.341   2.821   4.744
 3733SOL    HW211218   4.234   2.732   4.830
 3734SOL     OW11219   5.084   2.724   4.769
 3734SOL    HW111220   5.009   2.724   4.703
 3734SOL    HW211221   5.121   2.632   4.778
 3735SOL     OW11222   4.933   2.387   3.999
 3735SOL    HW111223   4.946   2.303   4.053
 3735SOL    HW211224   4.904   2.461   4.059
 3736SOL     OW11225   4.031   2.075   4.955
 3736SOL    HW111226   4.008   2.112   5.045
 3736SOL    HW211227   4.001   1.980   4.949
 3737SOL     OW11228   4.456   2.496   4.788
 3737SOL    HW111229   4.515   2.470   4.712
 3737SOL    HW211230   4.428   2.592   4.777
 3738SOL     OW11231   4.031   1.925   4.342
 3738SOL    HW111232   4.020   2.019   4.375
 3738SOL    HW211233   4.026   1.862   4.419
 3739SOL     OW11234   4.747   2.628   4.690
 3739SOL    HW111235   4.762   2.649   4.786
 3739SOL    HW211236   4.717   2.533   4.681
 3740SOL     OW11237   5.264   2.136   3.849
 3740SOL    HW111238   5.203   2.061   3.872
 3740SOL    HW211239   5.286   2.188   3.932
 3741SOL     OW11240   4.792   3.195   4.573
 3741SOL    HW111241   4.799   3.111   4.518
 3741SOL    HW211242   4.854   3.264   4.537
 3742SOL     OW11243   4.043   2.672   4.673
 3742SOL    HW111244   4.136   2.708   4.678
 3742SOL    HW211245   4.037   2.587   4.725
 3743SOL     OW11246   4.063   2.371   4.730
 3743SOL    HW111247   4.011   2.288   4.713
 3743SOL    HW211248   4.140   2.376   4.666
 3744SOL     OW11249   4.884   2.069   5.201
 3744SOL    HW111250   4.884   2.133   5.278
 3744SOL    HW211251   4.912   2.117   5.118
 3745SOL     OW11252   3.732   3.188   3.924
 3745SOL    HW111253   3.639   3.209   3.893
 3745SOL    HW211254   3.742   3.089   3.937
 3746SOL     OW11255   3.812   3.663   4.651
 3746SOL    HW111256   3.770   3.577   4.624
 3746SOL    HW211257   3.906   3.666   4.617
 3747SOL     OW11258   4.228   3.430   4.634
 3747SOL    HW111259   4.294   3.504   4.643
 3747SOL    HW211260   4.272   3.351   4.592
 3748SOL     OW11261   4.726   2.658   4.962
 3748SOL    HW111262   4.767   2.626   5.048
 3748SOL    HW211263   4.630   2.631   4.959
 3749SOL     OW11264   3.764   2.406   4.838
 3749SOL    HW111265   3.849   2.373   4.797
 3749SOL    HW211266   3.777   2.421   4.936
 3750SOL     OW11267   4.539   2.434   4.049
 3750SOL    HW111268   4.546   2.345   4.003
 3750SOL    HW211269   4.445   2.468   4.041
 3751SOL     OW11270   4.395   2.326   4.993
 3751SOL    HW111271   4.361   2.237   4.963
 3751SOL    HW211272   4.421   2.380   4.913
 3752SOL     OW11273   4.197   2.362   3.915
 3752SOL    HW111274   4.258   2.442   3.919
 3752SOL    HW211275   4.102   2.393   3.922
 3753SOL     OW11276   3.883   2.999   5.190
 3753SOL    HW111277   3.905   2.938   5.266
 3753SOL    HW211278   3.893   2.950   5.104
 3754SOL     OW11279   4.976   3.593   4.852
 3754SOL    HW111280   5.060   3.598   4.798
 3754SOL    HW211281   4.953   3.497   4.870
 3755SOL     OW11282   3.807   3.120   4.746
 3755SOL    HW111283   3.802   3.119   4.846
 3755SOL    HW211284   3.724   3.079   4.708
 3756SOL     OW11285   4.396   3.478   3.878
 3756SOL    HW111286   4.405   3.488   3.779
 3756SOL    HW211287   4.356   3.389   3.899
 3757SOL     OW11288   3.987   2.188   4.444
 3757SOL    HW111289   3.908   2.239   4.410
 3757SOL    HW211290   3.978   2.173   4.542
 3758SOL     OW11291   4.546   2.864   5.096
 3758SOL    HW111292   4.586   2.863   5.004
 3758SOL    HW211293   4.556   2.956   5.136
 3759SOL     OW11294   4.640   2.772   4.015
 3759SOL    HW111295   4.703   2.810   3.947
 3759SOL    HW211296   4.680   2.689   4.054
 3760SOL     OW11297   4.763   2.960   4.420
 3760SOL    HW111298   4.693   2.913   4.474
 3760SOL    HW211299   4.822   2.892   4.377
 3761SOL     OW11300   4.738   2.098   4.695
 3761SOL    HW111301   4.730   2.062   4.602
 3761SOL    HW211302   4.736   2.022   4.760
 3762SOL     OW11303   4.314   3.349   4.215
 3762SOL    HW111304   4.356   3.291   4.145
 3762SOL    HW211305   4.270   3.428   4.171
 3763SOL     OW11306   3.979   3.210   4.014
 3763SOL    HW111307   3.883   3.211   3.987
 3763SOL    HW211308   3.991   3.263   4.098
 3764SOL     OW11309   3.799   2.207   3.757
 3764SOL    HW111310   3.707   2.179   3.728
 3764SOL    HW211311   3.830   2.284   3.701
 3765SOL     OW11312   3.796   2.028   4.042
 3765SOL    HW111313   3.779   2.111   3.988
 3765SOL    HW211314   3.886   1.991   4.020
 3766SOL     OW11315   4.318   2.607   4.376
 3766SOL    HW111316   4.368   2.692   4.357
 3766SOL    HW211317   4.230   2.609   4.328
 3767SOL     OW11318   4.583   3.236   3.740
 3767SOL    HW111319   4.537   3.251   3.828
 3767SOL    HW211320   4.627   3.321   3.710
 3768SOL     OW11321   4.385   3.652   4.677
 3768SOL    HW111322   4.339   3.740   4.664
 3768SOL    HW211323   4.484   3.664   4.670
 3769SOL     OW11324   4.583   2.818   4.585
 3769SOL    HW111325   4.637   2.749   4.633
 3769SOL    HW211326   4.551   2.887   4.651
 3770SOL     OW11327   4.807   2.846   3.811
 3770SOL    HW111328   4.784   2.899   3.729
 3770SOL    HW211329   4.888   2.790   3.792
 3771SOL     OW11330   3.803   3.102   4.377
 3771SOL    HW111331   3.802   3.055   4.465
 3771SOL    HW211332   3.885   3.074   4.326
 3772SOL     OW11333   4.152   2.286   4.244
 3772SOL    HW111334   4.182   2.214   4.182
 3772SOL    HW211335   4.113   2.246   4.327
 3773SOL     OW11336   4.536   3.448   4.411
 3773SOL    HW111337   4.568   3.458   4.317
 3773SOL    HW211338   4.457   3.386   4.413
 3774SOL     OW11339   4.725   1.896   4.878
 3774SOL    HW111340   4.662   1.824   4.847
 3774SOL    HW211341   4.818   1.860   4.878
 3775SOL     OW11342   4.494   3.192   4.025
 3775SOL    HW111343   4.448   3.105   4.042
 3775SOL    HW211344   4.585   3.189   4.066
 3776SOL     OW11345   3.763   2.939   4.024
 3776SOL    HW111346   3.862   2.928   4.015
 3776SOL    HW211347   3.723   2.853   4.056
 3777SOL     OW11348   4.599   3.508   4.061
 3777SOL    HW111349   4.522   3.473   4.007
 3777SOL    HW211350   4.567   3.579   4.123
 3778SOL     OW11351   3.954   4.352   0.113
 3778SOL    HW111352   3.861   4.350   0.150
 3778SOL    HW211353   3.955   4.313   0.021
 3779SOL     OW11354   3.949   3.999   0.996
 3779SOL    HW111355   3.984   3.982   1.088
 3779SOL    HW211356   3.861   3.954   0.984
 3780SOL     OW11357   3.743   4.092   0.647
 3780SOL    HW111358   3.661   4.135   0.686
 3780SOL    HW211359   3.715   4.019   0.584
 3781SOL     OW11360   4.859   4.427   0.717
 3781SOL    HW111361   4.916   4.505   0.692
 3781SOL    HW211362   4.799   4.453   0.793
 3782SOL     OW11363   4.492   4.868   1.023
 3782SOL    HW111364   4.414   4.885   1.083
 3782SOL    HW211365   4.526   4.955   0.987
 3783SOL     OW11366   4.574   4.522   1.823
 3783SOL    HW111367   4.570   4.598   1.888
 3783SOL    HW211368   4.596   4.558   1.732
 3784SOL     OW11369   4.409   4.736   0.665
 3784SOL    HW111370   4.478   4.720   0.735
 3784SOL    HW211371   4.336   4.793   0.703
 3785SOL     OW11372   4.162   4.116   1.499
 3785SOL    HW111373   4.244   4.060   1.508
 3785SOL    HW211374   4.081   4.058   1.503
 3786SOL     OW11375   3.964   4.815   0.886
 3786SOL    HW111376   3.978   4.731   0.938
 3786SOL    HW211377   3.909   4.879   0.941
 3787SOL     OW11378   4.330   4.688   0.123
 3787SOL    HW111379   4.337   4.772   0.069
 3787SOL    HW211380   4.376   4.701   0.211
 3788SOL     OW11381   3.846   4.367   0.563
 3788SOL    HW111382   3.801   4.279   0.580
 3788SOL    HW211383   3.845   4.421   0.647
 3789SOL     OW11384   3.837   4.461   1.597
 3789SOL    HW111385   3.925   4.448   1.642
 3789SOL    HW211386   3.824   4.558   1.575
 3790SOL     OW11387   4.337   5.089   0.726
 3790SOL    HW111388   4.288   5.002   0.735
 3790SOL    HW211389   4.314   5.132   0.639
 3791SOL     OW11390   4.533   3.728   0.502
 3791SOL    HW111391   4.573   3.819   0.493
 3791SOL    HW211392   4.433   3.736   0.508
 3792SOL     OW11393   3.921   4.700   1.264
 3792SOL    HW111394   4.010   4.655   1.250
 3792SOL    HW211395   3.848   4.635   1.245
 3793SOL     OW11396   4.041   3.975   1.801
 3793SOL    HW111397   4.112   4.046   1.807
 3793SOL    HW211398   3.953   4.014   1.829
 3794SOL     OW11399   4.322   4.453   0.270
 3794SOL    HW111400   4.346   4.522   0.202
 3794SOL    HW211401   4.244   4.486   0.324
 3795SOL     OW11402   4.531   4.329   1.465
 3795SOL    HW111403   4.484   4.326   1.554
 3795SOL    HW211404   4.480   4.274   1.399
 3796SOL     OW11405   4.697   4.614   1.572
 3796SOL    HW111406   4.743   4.530   1.543
 3796SOL    HW211407   4.641   4.648   1.497
 3797SOL     OW11408   4.715   4.134   1.242
 3797SOL    HW111409   4.638   4.168   1.296
 3797SOL    HW211410   4.681   4.083   1.163
 3798SOL     OW11411   4.765   4.425   0.429
 3798SOL    HW111412   4.791   4.421   0.525
 3798SOL    HW211413   4.680   4.374   0.415
 3799SOL     OW11414   3.800   4.535   0.789
 3799SOL    HW111415   3.899   4.523   0.798
 3799SOL    HW211416   3.776   4.630   0.810
 3800SOL     OW11417   4.589   4.072   0.195
 3800SOL    HW111418   4.648   4.135   0.146
 3800SOL    HW211419   4.608   3.978   0.166
 3801SOL     OW11420   4.274   3.920   0.885
 3801SOL    HW111421   4.269   3.915   0.985
 3801SOL    HW211422   4.276   4.016   0.856
 3802SOL     OW11423   4.045   4.667   0.242
 3802SOL    HW111424   4.127   4.706   0.200
 3802SOL    HW211425   4.018   4.585   0.193
 3803SOL     OW11426   3.926   4.009   1.498
 3803SOL    HW111427   3.846   4.069   1.485
 3803SOL    HW211428   3.916   3.960   1.584
 3804SOL     OW11429   4.106   4.424   0.480
 3804SOL    HW111430   4.151   4.334   0.477
 3804SOL    HW211431   4.012   4.413   0.513
 3805SOL     OW11432   4.338   3.846   0.117
 3805SOL    HW111433   4.436   3.824   0.124
 3805SOL    HW211434   4.307   3.829   0.024
 3806SOL     OW11435   4.505   3.988   1.749
 3806SOL    HW111436   4.572   3.927   1.792
 3806SOL    HW211437   4.432   4.007   1.814
 3807SOL     OW11438   4.646   4.227   0.899
 3807SOL    HW111439   4.621   4.218   0.803
 3807SOL    HW211440   4.694   4.145   0.930
 3808SOL     OW11441   4.263   3.788   0.512
 3808SOL    HW111442   4.182   3.789   0.570
 3808SOL    HW211443   4.266   3.871   0.457
 3809SOL     OW11444   4.021   3.759   0.171
 3809SOL    HW111445   4.070   3.843   0.150
 3809SOL    HW211446   4.083   3.694   0.216
 3810SOL     OW11447   4.659   3.960   0.480
 3810SOL    HW111448   4.611   4.001   0.402
 3810SOL    HW211449   4.758   3.958   0.461
 3811SOL     OW11450   4.800   4.407   1.464
 3811SOL    HW111451   4.720   4.346   1.467
 3811SOL    HW211452   4.881   4.354   1.440
 3812SOL     OW11453   4.183   4.876   0.741
 3812SOL    HW111454   4.112   4.849   0.806
 3812SOL    HW211455   4.157   4.848   0.648
 3813SOL     OW11456   4.756   4.273   0.016
 3813SOL    HW111457   4.715   4.355  -0.023
 3813SOL    HW211458   4.820   4.299   0.089
 3814SOL     OW11459   3.802   4.280   1.386
 3814SOL    HW111460   3.894   4.279   1.345
 3814SOL    HW211461   3.796   4.354   1.453
 3815SOL     OW11462   4.285   3.946   1.147
 3815SOL    HW111463   4.323   3.862   1.184
 3815SOL    HW211464   4.197   3.965   1.191
 3816SOL     OW11465   4.590   4.178   0.642
 3816SOL    HW111466   4.558   4.250   0.580
 3816SOL    HW211467   4.614   4.097   0.589
 3817SOL     OW11468   4.741   3.763   0.753
 3817SOL    HW111469   4.669   3.768   0.684
 3817SOL    HW211470   4.717   3.694   0.822
 3818SOL     OW11471   4.251   3.980   0.328
 3818SOL    HW111472   4.278   3.921   0.253
 3818SOL    HW211473   4.251   4.075   0.297
 3819SOL     OW11474   4.639   3.813   1.402
 3819SOL    HW111475   4.664   3.793   1.307
 3819SOL    HW211476   4.711   3.869   1.444
 3820SOL     OW11477   4.704   4.840   1.719
 3820SOL    HW111478   4.605   4.846   1.729
 3820SOL    HW211479   4.727   4.760   1.663
 3821SOL     OW11480   4.429   4.774   0.368
 3821SOL    HW111481   4.415   4.781   0.467
 3821SOL    HW211482   4.513   4.723   0.350
 3822SOL     OW11483   4.134   4.537   1.251
 3822SOL    HW111484   4.220   4.549   1.301
 3822SOL    HW211485   4.092   4.450   1.278
 3823SOL     OW11486   4.091   4.824   0.501
 3823SOL    HW111487   4.084   4.907   0.445
 3823SOL    HW211488   4.095   4.744   0.441
 3824SOL     OW11489   4.290   4.261   0.865
 3824SOL    HW111490   4.302   4.327   0.791
 3824SOL    HW211491   4.336   4.295   0.948
 3825SOL     OW11492   4.126   4.475   1.598
 3825SOL    HW111493   4.194   4.530   1.551
 3825SOL    HW211494   4.166   4.387   1.625
 3826SOL     OW11495   4.737   3.829   1.770
 3826SOL    HW111496   4.743   3.914   1.718
 3826SOL    HW211497   4.769   3.753   1.713
 3827SOL     OW11498   4.228   3.774   1.740
 3827SOL    HW111499   4.186   3.717   1.670
 3827SOL    HW211500   4.162   3.843   1.772
 3828SOL     OW11501   4.297   4.594   1.029
 3828SOL    HW111502   4.341   4.683   1.020
 3828SOL    HW211503   4.234   4.594   1.106
 3829SOL     OW11504   5.084   4.586   1.045
 3829SOL    HW111505   5.009   4.586   0.979
 3829SOL    HW211506   5.121   4.494   1.054
 3830SOL     OW11507   4.933   4.249   0.275
 3830SOL    HW111508   4.946   4.165   0.329
 3830SOL    HW211509   4.904   4.323   0.335
 3831SOL     OW11510   4.031   3.937   1.231
 3831SOL    HW111511   4.008   3.974   1.321
 3831SOL    HW211512   4.001   3.842   1.225
 3832SOL     OW11513   4.456   4.358   1.064
 3832SOL    HW111514   4.515   4.332   0.988
 3832SOL    HW211515   4.428   4.454   1.053
 3833SOL     OW11516   4.031   3.787   0.618
 3833SOL    HW111517   4.020   3.881   0.651
 3833SOL    HW211518   4.026   3.724   0.695
 3834SOL     OW11519   4.747   4.490   0.966
 3834SOL    HW111520   4.762   4.511   1.062
 3834SOL    HW211521   4.717   4.395   0.957
 3835SOL     OW11522   4.074   4.622   1.804
 3835SOL    HW111523   4.150   4.666   1.852
 3835SOL    HW211524   4.109   4.575   1.722
 3836SOL     OW11525   4.043   4.534   0.949
 3836SOL    HW111526   4.136   4.570   0.954
 3836SOL    HW211527   4.037   4.449   1.001
 3837SOL     OW11528   4.063   4.233   1.006
 3837SOL    HW111529   4.011   4.150   0.989
 3837SOL    HW211530   4.140   4.238   0.942
 3838SOL     OW11531   4.862   4.104   1.678
 3838SOL    HW111532   4.817   4.167   1.742
 3838SOL    HW211533   4.955   4.135   1.661
 3839SOL     OW11534   4.884   3.931   1.477
 3839SOL    HW111535   4.884   3.995   1.554
 3839SOL    HW211536   4.912   3.979   1.394
 3840SOL     OW11537   4.726   4.520   1.238
 3840SOL    HW111538   4.767   4.488   1.324
 3840SOL    HW211539   4.630   4.493   1.235
 3841SOL     OW11540   3.764   4.268   1.114
 3841SOL    HW111541   3.849   4.235   1.073
 3841SOL    HW211542   3.777   4.283   1.212
 3842SOL     OW11543   3.913   4.244   1.722
 3842SOL    HW111544   3.972   4.204   1.652
 3842SOL    HW211545   3.855   4.315   1.681
 3843SOL     OW11546   4.539   4.296   0.325
 3843SOL    HW111547   4.546   4.207   0.279
 3843SOL    HW211548   4.445   4.330   0.317
 3844SOL     OW11549   4.395   4.188   1.269
 3844SOL    HW111550   4.361   4.099   1.239
 3844SOL    HW211551   4.421   4.242   1.189
 3845SOL     OW11552   4.197   4.224   0.191
 3845SOL    HW111553   4.258   4.304   0.195
 3845SOL    HW211554   4.102   4.255   0.198
 3846SOL     OW11555   3.883   4.861   1.466
 3846SOL    HW111556   3.905   4.800   1.542
 3846SOL    HW211557   3.893   4.812   1.380
 3847SOL     OW11558   4.627   3.810   0.133
 3847SOL    HW111559   4.678   3.811   0.047
 3847SOL    HW211560   4.683   3.768   0.204
 3848SOL     OW11561   3.987   4.050   0.720
 3848SOL    HW111562   3.908   4.101   0.686
 3848SOL    HW211563   3.978   4.035   0.818
 3849SOL     OW11564   4.546   4.726   1.372
 3849SOL    HW111565   4.586   4.725   1.280
 3849SOL    HW211566   4.556   4.818   1.412
 3850SOL     OW11567   4.640   4.634   0.291
 3850SOL    HW111568   4.703   4.672   0.223
 3850SOL    HW211569   4.680   4.551   0.330
 3851SOL     OW11570   4.096   5.012   1.490
 3851SOL    HW111571   4.083   5.105   1.456
 3851SOL    HW211572   4.012   4.960   1.477
 3852SOL     OW11573   4.763   4.822   0.696
 3852SOL    HW111574   4.693   4.775   0.750
 3852SOL    HW211575   4.822   4.754   0.653
 3853SOL     OW11576   4.738   3.960   0.971
 3853SOL    HW111577   4.730   3.924   0.878
 3853SOL    HW211578   4.736   3.884   1.036
 3854SOL     OW11579   3.829   4.737   1.726
 3854SOL    HW111580   3.752   4.704   1.780
 3854SOL    HW211581   3.914   4.707   1.768
 3855SOL     OW11582   4.396   3.927   1.489
 3855SOL    HW111583   4.486   3.911   1.449
 3855SOL    HW211584   4.404   3.932   1.588
 3856SOL     OW11585   3.796   3.890   0.318
 3856SOL    HW111586   3.779   3.973   0.264
 3856SOL    HW211587   3.886   3.853   0.296
 3857SOL     OW11588   4.337   4.566   1.431
 3857SOL    HW111589   4.393   4.647   1.414
 3857SOL    HW211590   4.396   4.486   1.434
 3858SOL     OW11591   4.440   4.289   1.708
 3858SOL    HW111592   4.459   4.354   1.782
 3858SOL    HW211593   4.500   4.209   1.717
 3859SOL     OW11594   4.318   4.469   0.652
 3859SOL    HW111595   4.368   4.554   0.633
 3859SOL    HW211596   4.230   4.471   0.604
 3860SOL     OW11597   4.583   4.680   0.861
 3860SOL    HW111598   4.637   4.611   0.909
 3860SOL    HW211599   4.551   4.749   0.927
 3861SOL     OW11600   4.807   4.708   0.087
 3861SOL    HW111601   4.784   4.761   0.005
 3861SOL    HW211602   4.888   4.652   0.068
 3862SOL     OW11603   3.803   4.964   0.653
 3862SOL    HW111604   3.802   4.917   0.741
 3862SOL    HW211605   3.885   4.936   0.602
 3863SOL     OW11606   4.152   4.148   0.520
 3863SOL    HW111607   4.182   4.076   0.458
 3863SOL    HW211608   4.113   4.108   0.603
 3864SOL     OW11609   4.041   4.271   1.280
 3864SOL    HW111610   4.079   4.212   1.352
 3864SOL    HW211611   4.081   4.245   1.192
 3865SOL     OW11612   4.725   3.758   1.154
 3865SOL    HW111613   4.662   3.686   1.123
 3865SOL    HW211614   4.818   3.722   1.154
 3866SOL     OW11615   4.494   5.054   0.301
 3866SOL    HW111616   4.448   4.967   0.318
 3866SOL    HW211617   4.585   5.051   0.342
 3867SOL     OW11618   5.076   3.776   0.168
 3867SOL    HW111619   5.111   3.735   0.084
 3867SOL    HW211620   4.986   3.738   0.188
 3868SOL     OW11621   3.954   4.352   1.975
 3868SOL    HW111622   3.861   4.350   2.012
 3868SOL    HW211623   3.955   4.313   1.883
 3869SOL     OW11624   3.949   3.999   2.858
 3869SOL    HW111625   3.984   3.982   2.950
 3869SOL    HW211626   3.861   3.954   2.846
 3870SOL     OW11627   3.743   4.092   2.509
 3870SOL    HW111628   3.661   4.135   2.548
 3870SOL    HW211629   3.715   4.019   2.446
 3871SOL     OW11630   4.859   4.427   2.579
 3871SOL    HW111631   4.916   4.505   2.554
 3871SOL    HW211632   4.799   4.453   2.655
 3872SOL     OW11633   4.492   4.868   2.885
 3872SOL    HW111634   4.414   4.885   2.945
 3872SOL    HW211635   4.526   4.955   2.849
 3873SOL     OW11636   4.574   4.522   3.685
 3873SOL    HW111637   4.570   4.598   3.750
 3873SOL    HW211638   4.596   4.558   3.594
 3874SOL     OW11639   4.409   4.736   2.527
 3874SOL    HW111640   4.478   4.720   2.597
 3874SOL    HW211641   4.336   4.793   2.565
 3875SOL     OW11642   4.162   4.116   3.361
 3875SOL    HW111643   4.244   4.060   3.370
 3875SOL    HW211644   4.081   4.058   3.365
 3876SOL     OW11645   3.964   4.815   2.748
 3876SOL    HW111646   3.978   4.731   2.800
 3876SOL    HW211647   3.909   4.879   2.803
 3877SOL     OW11648   4.330   4.688   1.985
 3877SOL    HW111649   4.337   4.772   1.931
 3877SOL    HW211650   4.376   4.701   2.073
 3878SOL     OW11651   3.846   4.367   2.425
 3878SOL    HW111652   3.801   4.279   2.442
 3878SOL    HW211653   3.845   4.421   2.509
 3879SOL     OW11654   3.837   4.461   3.459
 3879SOL    HW111655   3.925   4.448   3.504
 3879SOL    HW211656   3.824   4.558   3.437
 3880SOL     OW11657   4.337   5.089   2.588
 3880SOL    HW111658   4.288   5.002   2.597
 3880SOL    HW211659   4.314   5.132   2.501
 3881SOL     OW11660   4.533   3.728   2.364
 3881SOL    HW111661   4.573   3.819   2.355
 3881SOL    HW211662   4.433   3.736   2.370
 3882SOL     OW11663   3.921   4.700   3.126
 3882SOL    HW111664   4.010   4.655   3.112
 3882SOL    HW211665   3.848   4.635   3.107
 3883SOL     OW11666   4.041   3.975   3.663
 3883SOL    HW111667   4.112   4.046   3.669
 3883SOL    HW211668   3.953   4.014   3.691
 3884SOL     OW11669   4.322   4.453   2.132
 3884SOL    HW111670   4.346   4.522   2.064
 3884SOL    HW211671   4.244   4.486   2.186
 3885SOL     OW11672   4.531   4.329   3.327
 3885SOL    HW111673   4.484   4.326   3.416
 3885SOL    HW211674   4.480   4.274   3.261
 3886SOL     OW11675   4.697   4.614   3.434
 3886SOL    HW111676   4.743   4.530   3.405
 3886SOL    HW211677   4.641   4.648   3.359
 3887SOL     OW11678   4.715   4.134   3.104
 3887SOL    HW111679   4.638   4.168   3.158
 3887SOL    HW211680   4.681   4.083   3.025
 3888SOL     OW11681   4.765   4.425   2.291
 3888SOL    HW111682   4.791   4.421   2.387
 3888SOL    HW211683   4.680   4.374   2.277
 3889SOL     OW11684   3.800   4.535   2.651
 3889SOL    HW111685   3.899   4.523   2.660
 3889SOL    HW211686   3.776   4.630   2.672
 3890SOL     OW11687   4.589   4.072   2.057
 3890SOL    HW111688   4.648   4.135   2.008
 3890SOL    HW211689   4.608   3.978   2.028
 3891SOL     OW11690   4.274   3.920   2.747
 3891SOL    HW111691   4.269   3.915   2.847
 3891SOL    HW211692   4.276   4.016   2.718
 3892SOL     OW11693   4.045   4.667   2.104
 3892SOL    HW111694   4.127   4.706   2.062
 3892SOL    HW211695   4.018   4.585   2.055
 3893SOL     OW11696   3.926   4.009   3.360
 3893SOL    HW111697   3.846   4.069   3.347
 3893SOL    HW211698   3.916   3.960   3.446
 3894SOL     OW11699   4.106   4.424   2.342
 3894SOL    HW111700   4.151   4.334   2.339
 3894SOL    HW211701   4.012   4.413   2.375
 3895SOL     OW11702   4.338   3.846   1.979
 3895SOL    HW111703   4.436   3.824   1.986
 3895SOL    HW211704   4.307   3.829   1.886
 3896SOL     OW11705   4.505   3.988   3.611
 3896SOL    HW111706   4.572   3.927   3.654
 3896SOL    HW211707   4.432   4.007   3.676
 3897SOL     OW11708   4.646   4.227   2.761
 3897SOL    HW111709   4.621   4.218   2.665
 3897SOL    HW211710   4.694   4.145   2.792
 3898SOL     OW11711   4.263   3.788   2.374
 3898SOL    HW111712   4.182   3.789   2.432
 3898SOL    HW211713   4.266   3.871   2.319
 3899SOL     OW11714   4.021   3.759   2.033
 3899SOL    HW111715   4.070   3.843   2.012
 3899SOL    HW211716   4.083   3.694   2.078
 3900SOL     OW11717   4.659   3.960   2.342
 3900SOL    HW111718   4.611   4.001   2.264
 3900SOL    HW211719   4.758   3.958   2.323
 3901SOL     OW11720   4.800   4.407   3.326
 3901SOL    HW111721   4.720   4.346   3.329
 3901SOL    HW211722   4.881   4.354   3.302
 3902SOL     OW11723   4.183   4.876   2.603
 3902SOL    HW111724   4.112   4.849   2.668
 3902SOL    HW211725   4.157   4.848   2.510
 3903SOL     OW11726   4.756   4.273   1.878
 3903SOL    HW111727   4.715   4.355   1.839
 3903SOL    HW211728   4.820   4.299   1.951
 3904SOL     OW11729   3.802   4.280   3.248
 3904SOL    HW111730   3.894   4.279   3.207
 3904SOL    HW211731   3.796   4.354   3.315
 3905SOL     OW11732   4.285   3.946   3.009
 3905SOL    HW111733   4.323   3.862   3.046
 3905SOL    HW211734   4.197   3.965   3.053
 3906SOL     OW11735   4.590   4.178   2.504
 3906SOL    HW111736   4.558   4.250   2.442
 3906SOL    HW211737   4.614   4.097   2.451
 3907SOL     OW11738   4.741   3.763   2.615
 3907SOL    HW111739   4.669   3.768   2.546
 3907SOL    HW211740   4.717   3.694   2.684
 3908SOL     OW11741   4.251   3.980   2.190
 3908SOL    HW111742   4.278   3.921   2.115
 3908SOL    HW211743   4.251   4.075   2.159
 3909SOL     OW11744   4.639   3.813   3.264
 3909SOL    HW111745   4.664   3.793   3.169
 3909SOL    HW211746   4.711   3.869   3.306
 3910SOL     OW11747   4.704   4.840   3.581
 3910SOL    HW111748   4.605   4.846   3.591
 3910SOL    HW211749   4.727   4.760   3.525
 3911SOL     OW11750   4.429   4.774   2.230
 3911SOL    HW111751   4.415   4.781   2.329
 3911SOL    HW211752   4.513   4.723   2.212
 3912SOL     OW11753   4.134   4.537   3.113
 3912SOL    HW111754   4.220   4.549   3.163
 3912SOL    HW211755   4.092   4.450   3.140
 3913SOL     OW11756   4.091   4.824   2.363
 3913SOL    HW111757   4.084   4.907   2.307
 3913SOL    HW211758   4.095   4.744   2.303
 3914SOL     OW11759   4.290   4.261   2.727
 3914SOL    HW111760   4.302   4.327   2.653
 3914SOL    HW211761   4.336   4.295   2.810
 3915SOL     OW11762   4.126   4.475   3.460
 3915SOL    HW111763   4.194   4.530   3.413
 3915SOL    HW211764   4.166   4.387   3.487
 3916SOL     OW11765   4.737   3.829   3.632
 3916SOL    HW111766   4.743   3.914   3.580
 3916SOL    HW211767   4.769   3.753   3.575
 3917SOL     OW11768   4.228   3.774   3.602
 3917SOL    HW111769   4.186   3.717   3.532
 3917SOL    HW211770   4.162   3.843   3.634
 3918SOL     OW11771   4.297   4.594   2.891
 3918SOL    HW111772   4.341   4.683   2.882
 3918SOL    HW211773   4.234   4.594   2.968
 3919SOL     OW11774   5.084   4.586   2.907
 3919SOL    HW111775   5.009   4.586   2.841
 3919SOL    HW211776   5.121   4.494   2.916
 3920SOL     OW11777   4.933   4.249   2.137
 3920SOL    HW111778   4.946   4.165   2.191
 3920SOL    HW211779   4.904   4.323   2.197
 3921SOL     OW11780   4.031   3.937   3.093
 3921SOL    HW111781   4.008   3.974   3.183
 3921SOL    HW211782   4.001   3.842   3.087
 3922SOL     OW11783   4.456   4.358   2.926
 3922SOL    HW111784   4.515   4.332   2.850
 3922SOL    HW211785   4.428   4.454   2.915
 3923SOL     OW11786   4.031   3.787   2.480
 3923SOL    HW111787   4.020   3.881   2.513
 3923SOL    HW211788   4.026   3.724   2.557
 3924SOL     OW11789   4.747   4.490   2.828
 3924SOL    HW111790   4.762   4.511   2.924
 3924SOL    HW211791   4.717   4.395   2.819
 3925SOL     OW11792   4.074   4.622   3.666
 3925SOL    HW111793   4.150   4.666   3.714
 3925SOL    HW211794   4.109   4.575   3.584
 3926SOL     OW11795   5.264   3.998   1.987
 3926SOL    HW111796   5.203   3.923   2.010
 3926SOL    HW211797   5.286   4.050   2.070
 3927SOL     OW11798   4.043   4.534   2.811
 3927SOL    HW111799   4.136   4.570   2.816
 3927SOL    HW211800   4.037   4.449   2.863
 3928SOL     OW11801   4.063   4.233   2.868
 3928SOL    HW111802   4.011   4.150   2.851
 3928SOL    HW211803   4.140   4.238   2.804
 3929SOL     OW11804   4.862   4.104   3.540
 3929SOL    HW111805   4.817   4.167   3.604
 3929SOL    HW211806   4.955   4.135   3.523
 3930SOL     OW11807   4.884   3.931   3.339
 3930SOL    HW111808   4.884   3.995   3.416
 3930SOL    HW211809   4.912   3.979   3.256
 3931SOL     OW11810   4.726   4.520   3.100
 3931SOL    HW111811   4.767   4.488   3.186
 3931SOL    HW211812   4.630   4.493   3.097
 3932SOL     OW11813   3.764   4.268   2.976
 3932SOL    HW111814   3.849   4.235   2.935
 3932SOL    HW211815   3.777   4.283   3.074
 3933SOL     OW11816   3.913   4.244   3.584
 3933SOL    HW111817   3.972   4.204   3.514
 3933SOL    HW211818   3.855   4.315   3.543
 3934SOL     OW11819   4.539   4.296   2.187
 3934SOL    HW111820   4.546   4.207   2.141
 3934SOL    HW211821   4.445   4.330   2.179
 3935SOL     OW11822   4.395   4.188   3.131
 3935SOL    HW111823   4.361   4.099   3.101
 3935SOL    HW211824   4.421   4.242   3.051
 3936SOL     OW11825   4.197   4.224   2.053
 3936SOL    HW111826   4.258   4.304   2.057
 3936SOL    HW211827   4.102   4.255   2.060
 3937SOL     OW11828   3.883   4.861   3.328
 3937SOL    HW111829   3.905   4.800   3.404
 3937SOL    HW211830   3.893   4.812   3.242
 3938SOL     OW11831   3.987   4.050   2.582
 3938SOL    HW111832   3.908   4.101   2.548
 3938SOL    HW211833   3.978   4.035   2.680
 3939SOL     OW11834   4.546   4.726   3.234
 3939SOL    HW111835   4.586   4.725   3.142
 3939SOL    HW211836   4.556   4.818   3.274
 3940SOL     OW11837   4.640   4.634   2.153
 3940SOL    HW111838   4.703   4.672   2.085
 3940SOL    HW211839   4.680   4.551   2.192
 3941SOL     OW11840   4.096   5.012   3.352
 3941SOL    HW111841   4.083   5.105   3.318
 3941SOL    HW211842   4.012   4.960   3.339
 3942SOL     OW11843   4.763   4.822   2.558
 3942SOL    HW111844   4.693   4.775   2.612
 3942SOL    HW211845   4.822   4.754   2.515
 3943SOL     OW11846   4.738   3.960   2.833
 3943SOL    HW111847   4.730   3.924   2.740
 3943SOL    HW211848   4.736   3.884   2.898
 3944SOL     OW11849   3.829   4.737   3.588
 3944SOL    HW111850   3.752   4.704   3.642
 3944SOL    HW211851   3.914   4.707   3.630
 3945SOL     OW11852   4.396   3.927   3.351
 3945SOL    HW111853   4.486   3.911   3.311
 3945SOL    HW211854   4.404   3.932   3.450
 3946SOL     OW11855   3.799   4.069   1.895
 3946SOL    HW111856   3.707   4.041   1.866
 3946SOL    HW211857   3.830   4.146   1.839
 3947SOL     OW11858   3.796   3.890   2.180
 3947SOL    HW111859   3.779   3.973   2.126
 3947SOL    HW211860   3.886   3.853   2.158
 3948SOL     OW11861   4.337   4.566   3.293
 3948SOL    HW111862   4.393   4.647   3.276
 3948SOL    HW211863   4.396   4.486   3.296
 3949SOL     OW11864   4.440   4.289   3.570
 3949SOL    HW111865   4.459   4.354   3.644
 3949SOL    HW211866   4.500   4.209   3.579
 3950SOL     OW11867   4.318   4.469   2.514
 3950SOL    HW111868   4.368   4.554   2.495
 3950SOL    HW211869   4.230   4.471   2.466
 3951SOL     OW11870   4.583   4.680   2.723
 3951SOL    HW111871   4.637   4.611   2.771
 3951SOL    HW211872   4.551   4.749   2.789
 3952SOL     OW11873   4.807   4.708   1.949
 3952SOL    HW111874   4.784   4.761   1.867
 3952SOL    HW211875   4.888   4.652   1.930
 3953SOL     OW11876   3.803   4.964   2.515
 3953SOL    HW111877   3.802   4.917   2.603
 3953SOL    HW211878   3.885   4.936   2.464
 3954SOL     OW11879   4.152   4.148   2.382
 3954SOL    HW111880   4.182   4.076   2.320
 3954SOL    HW211881   4.113   4.108   2.465
 3955SOL     OW11882   4.041   4.271   3.142
 3955SOL    HW111883   4.079   4.212   3.214
 3955SOL    HW211884   4.081   4.245   3.054
 3956SOL     OW11885   4.725   3.758   3.016
 3956SOL    HW111886   4.662   3.686   2.985
 3956SOL    HW211887   4.818   3.722   3.016
 3957SOL     OW11888   4.494   5.054   2.163
 3957SOL    HW111889   4.448   4.967   2.180
 3957SOL    HW211890   4.585   5.051   2.204
 3958SOL     OW11891   3.763   4.801   2.162
 3958SOL    HW111892   3.862   4.790   2.153
 3958SOL    HW211893   3.723   4.715   2.194
 3959SOL     OW11894   3.954   4.352   3.837
 3959SOL    HW111895   3.861   4.350   3.874
 3959SOL    HW211896   3.955   4.313   3.745
 3960SOL     OW11897   3.949   3.999   4.720
 3960SOL    HW111898   3.984   3.982   4.812
 3960SOL    HW211899   3.861   3.954   4.708
 3961SOL     OW11900   3.743   4.092   4.371
 3961SOL    HW111901   3.661   4.135   4.410
 3961SOL    HW211902   3.715   4.019   4.308
 3962SOL     OW11903   4.859   4.427   4.441
 3962SOL    HW111904   4.916   4.505   4.416
 3962SOL    HW211905   4.799   4.453   4.517
 3963SOL     OW11906   4.492   4.868   4.747
 3963SOL    HW111907   4.414   4.885   4.807
 3963SOL    HW211908   4.526   4.955   4.711
 3964SOL     OW11909   4.409   4.736   4.389
 3964SOL    HW111910   4.478   4.720   4.459
 3964SOL    HW211911   4.336   4.793   4.427
 3965SOL     OW11912   3.964   4.815   4.610
 3965SOL    HW111913   3.978   4.731   4.662
 3965SOL    HW211914   3.909   4.879   4.665
 3966SOL     OW11915   4.330   4.688   3.847
 3966SOL    HW111916   4.337   4.772   3.793
 3966SOL    HW211917   4.376   4.701   3.935
 3967SOL     OW11918   3.846   4.367   4.287
 3967SOL    HW111919   3.801   4.279   4.304
 3967SOL    HW211920   3.845   4.421   4.371
 3968SOL     OW11921   4.337   5.089   4.450
 3968SOL    HW111922   4.288   5.002   4.459
 3968SOL    HW211923   4.314   5.132   4.363
 3969SOL     OW11924   4.533   3.728   4.226
 3969SOL    HW111925   4.573   3.819   4.217
 3969SOL    HW211926   4.433   3.736   4.232
 3970SOL     OW11927   3.921   4.700   4.988
 3970SOL    HW111928   4.010   4.655   4.974
 3970SOL    HW211929   3.848   4.635   4.969
 3971SOL     OW11930   4.322   4.453   3.994
 3971SOL    HW111931   4.346   4.522   3.926
 3971SOL    HW211932   4.244   4.486   4.048
 3972SOL     OW11933   4.765   4.425   4.153
 3972SOL    HW111934   4.791   4.421   4.249
 3972SOL    HW211935   4.680   4.374   4.139
 3973SOL     OW11936   3.800   4.535   4.513
 3973SOL    HW111937   3.899   4.523   4.522
 3973SOL    HW211938   3.776   4.630   4.534
 3974SOL     OW11939   4.589   4.072   3.919
 3974SOL    HW111940   4.648   4.135   3.870
 3974SOL    HW211941   4.608   3.978   3.890
 3975SOL     OW11942   4.274   3.920   4.609
 3975SOL    HW111943   4.269   3.915   4.709
 3975SOL    HW211944   4.276   4.016   4.580
 3976SOL     OW11945   4.045   4.667   3.966
 3976SOL    HW111946   4.127   4.706   3.924
 3976SOL    HW211947   4.018   4.585   3.917
 3977SOL     OW11948   4.106   4.424   4.204
 3977SOL    HW111949   4.151   4.334   4.201
 3977SOL    HW211950   4.012   4.413   4.237
 3978SOL     OW11951   4.338   3.846   3.841
 3978SOL    HW111952   4.436   3.824   3.848
 3978SOL    HW211953   4.307   3.829   3.748
 3979SOL     OW11954   4.646   4.227   4.623
 3979SOL    HW111955   4.621   4.218   4.527
 3979SOL    HW211956   4.694   4.145   4.654
 3980SOL     OW11957   4.263   3.788   4.236
 3980SOL    HW111958   4.182   3.789   4.294
 3980SOL    HW211959   4.266   3.871   4.181
 3981SOL     OW11960   4.021   3.759   3.895
 3981SOL    HW111961   4.070   3.843   3.874
 3981SOL    HW211962   4.083   3.694   3.940
 3982SOL     OW11963   4.659   3.960   4.204
 3982SOL    HW111964   4.611   4.001   4.126
 3982SOL    HW211965   4.758   3.958   4.185
 3983SOL     OW11966   4.183   4.876   4.465
 3983SOL    HW111967   4.112   4.849   4.530
 3983SOL    HW211968   4.157   4.848   4.372
 3984SOL     OW11969   4.756   4.273   3.740
 3984SOL    HW111970   4.715   4.355   3.701
 3984SOL    HW211971   4.820   4.299   3.813
 3985SOL     OW11972   4.590   4.178   4.366
 3985SOL    HW111973   4.558   4.250   4.304
 3985SOL    HW211974   4.614   4.097   4.313
 3986SOL     OW11975   4.741   3.763   4.477
 3986SOL    HW111976   4.669   3.768   4.408
 3986SOL    HW211977   4.717   3.694   4.546
 3987SOL     OW11978   4.251   3.980   4.052
 3987SOL    HW111979   4.278   3.921   3.977
 3987SOL    HW211980   4.251   4.075   4.021
 3988SOL     OW11981   4.429   4.774   4.092
 3988SOL    HW111982   4.415   4.781   4.191
 3988SOL    HW211983   4.513   4.723   4.074
 3989SOL     OW11984   4.134   4.537   4.975
 3989SOL    HW111985   4.220   4.549   5.025
 3989SOL    HW211986   4.092   4.450   5.002
 3990SOL     OW11987   4.091   4.824   4.225
 3990SOL    HW111988   4.084   4.907   4.169
 3990SOL    HW211989   4.095   4.744   4.165
 3991SOL     OW11990   4.290   4.261   4.589
 3991SOL    HW111991   4.302   4.327   4.515
 3991SOL    HW211992   4.336   4.295   4.672
 3992SOL     OW11993   4.297   4.594   4.753
 3992SOL    HW111994   4.341   4.683   4.744
 3992SOL    HW211995   4.234   4.594   4.830
 3993SOL     OW11996   5.084   4.586   4.769
 3993SOL    HW111997   5.009   4.586   4.703
 3993SOL    HW211998   5.121   4.494   4.778
 3994SOL     OW11999   4.933   4.249   3.999
 3994SOL    HW112000   4.946   4.165   4.053
 3994SOL    HW212001   4.904   4.323   4.059
 3995SOL     OW12002   4.031   3.937   4.955
 3995SOL    HW112003   4.008   3.974   5.045
 3995SOL    HW212004   4.001   3.842   4.949
 3996SOL     OW12005   4.456   4.358   4.788
 3996SOL    HW112006   4.515   4.332   4.712
 3996SOL    HW212007   4.428   4.454   4.777
 3997SOL     OW12008   4.031   3.787   4.342
 3997SOL    HW112009   4.020   3.881   4.375
 3997SOL    HW212010   4.026   3.724   4.419
 3998SOL     OW12011   4.747   4.490   4.690
 3998SOL    HW112012   4.762   4.511   4.786
 3998SOL    HW212013   4.717   4.395   4.681
 3999SOL     OW12014   5.264   3.998   3.849
 3999SOL    HW112015   5.203   3.923   3.872
 3999SOL    HW212016   5.286   4.050   3.932
 4000SOL     OW12017   4.043   4.534   4.673
 4000SOL    HW112018   4.136   4.570   4.678
 4000SOL    HW212019   4.037   4.449   4.725
 4001SOL     OW12020   4.063   4.233   4.730
 4001SOL    HW112021   4.011   4.150   4.713
 4001SOL    HW212022   4.140   4.238   4.666
 4002SOL     OW12023   4.884   3.931   5.201
 4002SOL    HW112024   4.884   3.995   5.278
 4002SOL    HW212025   4.912   3.979   5.118
 4003SOL     OW12026   4.726   4.520   4.962
 4003SOL    HW112027   4.767   4.488   5.048
 4003SOL    HW212028   4.630   4.493   4.959
 4004SOL     OW12029   3.764   4.268   4.838
 4004SOL    HW112030   3.849   4.235   4.797
 4004SOL    HW212031   3.777   4.283   4.936
 4005SOL     OW12032   4.539   4.296   4.049
 4005SOL    HW112033   4.546   4.207   4.003
 4005SOL    HW212034   4.445   4.330   4.041
 4006SOL     OW12035   4.395   4.188   4.993
 4006SOL    HW112036   4.361   4.099   4.963
 4006SOL    HW212037   4.421   4.242   4.913
 4007SOL     OW12038   4.197   4.224   3.915
 4007SOL    HW112039   4.258   4.304   3.919
 4007SOL    HW212040   4.102   4.255   3.922
 4008SOL     OW12041   3.883   4.861   5.190
 4008SOL    HW112042   3.905   4.800   5.266
 4008SOL    HW212043   3.893   4.812   5.104
 4009SOL     OW12044   3.987   4.050   4.444
 4009SOL    HW112045   3.908   4.101   4.410
 4009SOL    HW212046   3.978   4.035   4.542
 4010SOL     OW12047   4.546   4.726   5.096
 4010SOL    HW112048   4.586   4.725   5.004
 4010SOL    HW212049   4.556   4.818   5.136
 4011SOL     OW12050   4.640   4.634   4.015
 4011SOL    HW112051   4.703   4.672   3.947
 4011SOL    HW212052   4.680   4.551   4.054
 4012SOL     OW12053   4.763   4.822   4.420
 4012SOL    HW112054   4.693   4.775   4.474
 4012SOL    HW212055   4.822   4.754   4.377
 4013SOL     OW12056   4.738   3.960   4.695
 4013SOL    HW112057   4.730   3.924   4.602
 4013SOL    HW212058   4.736   3.884   4.760
 4014SOL     OW12059   3.799   4.069   3.757
 4014SOL    HW112060   3.707   4.041   3.728
 4014SOL    HW212061   3.830   4.146   3.701
 4015SOL     OW12062   3.796   3.890   4.042
 4015SOL    HW112063   3.779   3.973   3.988
 4015SOL    HW212064   3.886   3.853   4.020
 4016SOL     OW12065   4.318   4.469   4.376
 4016SOL    HW112066   4.368   4.554   4.357
 4016SOL    HW212067   4.230   4.471   4.328
 4017SOL     OW12068   4.583   4.680   4.585
 4017SOL    HW112069   4.637   4.611   4.633
 4017SOL    HW212070   4.551   4.749   4.651
 4018SOL     OW12071   4.807   4.708   3.811
 4018SOL    HW112072   4.784   4.761   3.729
 4018SOL    HW212073   4.888   4.652   3.792
 4019SOL     OW12074   3.803   4.964   4.377
 4019SOL    HW112075   3.802   4.917   4.465
 4019SOL    HW212076   3.885   4.936   4.326
 4020SOL     OW12077   4.152   4.148   4.244
 4020SOL    HW112078   4.182   4.076   4.182
 4020SOL    HW212079   4.113   4.108   4.327
 4021SOL     OW12080   4.725   3.758   4.878
 4021SOL    HW112081   4.662   3.686   4.847
 4021SOL    HW212082   4.818   3.722   4.878
 4022SOL     OW12083   4.494   5.054   4.025
 4022SOL    HW112084   4.448   4.967   4.042
 4022SOL    HW212085   4.585   5.051   4.066
 4023SOL     OW12086   3.763   4.801   4.024
 4023SOL    HW112087   3.862   4.790   4.015
 4023SOL    HW212088   3.723   4.715   4.056
   4.98460   4.98460   4.98460
