mobley_2451097_GMX.gro created by acpype (v: 2023.10.27) on Wed May 20 23:42:49 2026
   13
    1MOL     C1    1   2.320   2.329   2.573
    1MOL     C2    2   2.326   2.320   2.151
    1MOL     C3    3   2.219   2.380   2.218
    1MOL     C4    4   2.431   2.264   2.223
    1MOL     C5    5   2.217   2.383   2.358
    1MOL     C6    6   2.429   2.267   2.363
    1MOL     C7    7   2.322   2.326   2.430
    1MOL     N1    8   2.319   2.332   2.689
    1MOL     H1    9   2.327   2.318   2.042
    1MOL     H2   10   2.137   2.424   2.162
    1MOL     H3   11   2.514   2.217   2.171
    1MOL     H4   12   2.133   2.430   2.409
    1MOL     H5   13   2.511   2.222   2.418
   4.64720   4.64720   4.64720
