; mobley_8449031_GMX_OPLS.top created by acpype (v: 2023.10.27) on Wed May 20 23:58:01 2026

; Include forcefield parameters
#include "ffoplsaa.itp"

; Include mobley_8449031_GMX.itp topology
#include "mobley_8449031_GMX.itp"

; Ligand position restraints
#ifdef POSRES_LIG
#include "posre_mobley_8449031.itp"
#endif

[ system ]
 mobley_8449031

[ molecules ]
; Compound        nmols
 mobley_8449031   1     
