; mobley_8449031_GMX_OPLS.itp created by acpype (v: 2023.10.27) on Wed May 20 23:58:01 2026

; For OPLS atomtypes manual fine tuning
; AC_at:OPLS_at:OPLScode: Possible_Alternatives (see ffoplsaa.atp and ffoplsaanb.itp)
; c3:CT:opls_135: ['136', '137', '149', '157', '158', '206', '209', '210', '223B', '224B', '245', '246', '274', '283', '284', '285', '292', '292B', '293B', '296', '307', '308', '505']
; n3:x:opls_x: []
; hc:HC:opls_140: []
; h1:HC:opls_140: []

[ moleculetype ]
;name            nrexcl
 mobley_8449031   3

[ atoms ]
;   nr  type  resi  res  atom  cgnr     charge      mass       ; qtot   bond_type
     1 opls_135     1   MOL    C1    1    -0.096100     12.01100 ; qtot -0.096  CT  
     2 opls_135     1   MOL    C2    2    -0.096100     12.01100 ; qtot -0.192  CT  
     3 opls_135     1   MOL    C3    3    -0.096100     12.01100 ; qtot -0.288  CT  
     4 opls_135     1   MOL    C4    4     0.166800     12.01100 ; qtot -0.121  CT  
     5 opls_135     1   MOL    C5    5     0.166800     12.01100 ; qtot  0.045  CT  
     6 opls_135     1   MOL    C6    6     0.166800     12.01100 ; qtot  0.212  CT  
     7 opls_x     1   MOL    N1    7    -0.729597      0.00000 ; qtot -0.517  x   
     8 opls_140     1   MOL    H1    8     0.038033      1.00800 ; qtot -0.479  HC  
     9 opls_140     1   MOL    H2    9     0.038033      1.00800 ; qtot -0.441  HC  
    10 opls_140     1   MOL    H3   10     0.038033      1.00800 ; qtot -0.403  HC  
    11 opls_140     1   MOL    H4   11     0.038033      1.00800 ; qtot -0.365  HC  
    12 opls_140     1   MOL    H5   12     0.038033      1.00800 ; qtot -0.327  HC  
    13 opls_140     1   MOL    H6   13     0.038033      1.00800 ; qtot -0.289  HC  
    14 opls_140     1   MOL    H7   14     0.038033      1.00800 ; qtot -0.251  HC  
    15 opls_140     1   MOL    H8   15     0.038033      1.00800 ; qtot -0.213  HC  
    16 opls_140     1   MOL    H9   16     0.038033      1.00800 ; qtot -0.175  HC  
    17 opls_140     1   MOL   H10   17     0.029200      1.00800 ; qtot -0.146  HC  
    18 opls_140     1   MOL   H11   18     0.029200      1.00800 ; qtot -0.117  HC  
    19 opls_140     1   MOL   H12   19     0.029200      1.00800 ; qtot -0.088  HC  
    20 opls_140     1   MOL   H13   20     0.029200      1.00800 ; qtot -0.058  HC  
    21 opls_140     1   MOL   H14   21     0.029200      1.00800 ; qtot -0.029  HC  
    22 opls_140     1   MOL   H15   22     0.029200      1.00800 ; qtot -0.000  HC  

[ bonds ]
;   ai     aj funct   r             k
     1      4   1 ;    1.5354e-01    1.9154e+05 ;     C1 - C4         CT - CT    
     1      8   1 ;    1.0962e-01    2.8891e+05 ;     C1 - H1         CT - HC    
     1      9   1 ;    1.0962e-01    2.8891e+05 ;     C1 - H2         CT - HC    
     1     10   1 ;    1.0962e-01    2.8891e+05 ;     C1 - H3         CT - HC    
     2      5   1 ;    1.5354e-01    1.9154e+05 ;     C2 - C5         CT - CT    
     2     11   1 ;    1.0962e-01    2.8891e+05 ;     C2 - H4         CT - HC    
     2     12   1 ;    1.0962e-01    2.8891e+05 ;     C2 - H5         CT - HC    
     2     13   1 ;    1.0962e-01    2.8891e+05 ;     C2 - H6         CT - HC    
     3      6   1 ;    1.5354e-01    1.9154e+05 ;     C3 - C6         CT - CT    
     3     14   1 ;    1.0962e-01    2.8891e+05 ;     C3 - H7         CT - HC    
     3     15   1 ;    1.0962e-01    2.8891e+05 ;     C3 - H8         CT - HC    
     3     16   1 ;    1.0962e-01    2.8891e+05 ;     C3 - H9         CT - HC    
     4      7   1 ;    1.4626e-01    2.1410e+05 ;     C4 - N1         CT - x     
     4     17   1 ;    1.0969e-01    2.8804e+05 ;     C4 - H10        CT - HC    
     4     18   1 ;    1.0969e-01    2.8804e+05 ;     C4 - H11        CT - HC    
     5      7   1 ;    1.4626e-01    2.1410e+05 ;     C5 - N1         CT - x     
     5     19   1 ;    1.0969e-01    2.8804e+05 ;     C5 - H12        CT - HC    
     5     20   1 ;    1.0969e-01    2.8804e+05 ;     C5 - H13        CT - HC    
     6      7   1 ;    1.4626e-01    2.1410e+05 ;     C6 - N1         CT - x     
     6     21   1 ;    1.0969e-01    2.8804e+05 ;     C6 - H14        CT - HC    
     6     22   1 ;    1.0969e-01    2.8804e+05 ;     C6 - H15        CT - HC    

[ pairs ]
;   ai     aj    funct
     1      5      1 ;     C1 - C5    
     1      6      1 ;     C1 - C6    
     2      4      1 ;     C2 - C4    
     2      6      1 ;     C2 - C6    
     3      4      1 ;     C3 - C4    
     3      5      1 ;     C3 - C5    
     4     19      1 ;     C4 - H12   
     4     20      1 ;     C4 - H13   
     4     21      1 ;     C4 - H14   
     4     22      1 ;     C4 - H15   
     5     17      1 ;     C5 - H10   
     5     18      1 ;     C5 - H11   
     5     21      1 ;     C5 - H14   
     5     22      1 ;     C5 - H15   
     6     17      1 ;     C6 - H10   
     6     18      1 ;     C6 - H11   
     6     19      1 ;     C6 - H12   
     6     20      1 ;     C6 - H13   
     7     11      1 ;     N1 - H4    
     7     12      1 ;     N1 - H5    
     7     13      1 ;     N1 - H6    
     7     14      1 ;     N1 - H7    
     7     15      1 ;     N1 - H8    
     7     16      1 ;     N1 - H9    
     8      7      1 ;     H1 - N1    
     8     17      1 ;     H1 - H10   
     8     18      1 ;     H1 - H11   
     9      7      1 ;     H2 - N1    
     9     17      1 ;     H2 - H10   
     9     18      1 ;     H2 - H11   
    10      7      1 ;     H3 - N1    
    10     17      1 ;     H3 - H10   
    10     18      1 ;     H3 - H11   
    11     19      1 ;     H4 - H12   
    11     20      1 ;     H4 - H13   
    12     19      1 ;     H5 - H12   
    12     20      1 ;     H5 - H13   
    13     19      1 ;     H6 - H12   
    13     20      1 ;     H6 - H13   
    14     21      1 ;     H7 - H14   
    14     22      1 ;     H7 - H15   
    15     21      1 ;     H8 - H14   
    15     22      1 ;     H8 - H15   
    16     21      1 ;     H9 - H14   
    16     22      1 ;     H9 - H15   

[ angles ]
;   ai     aj     ak    funct   theta         cth
     1      4      7      1 ;    1.1308e+02    5.4308e+02 ;     C1 - C4   - N1       CT -   CT - x   
     1      4     17      1 ;    1.0959e+02    3.6217e+02 ;     C1 - C4   - H10      CT -   CT - HC  
     1      4     18      1 ;    1.0959e+02    3.6217e+02 ;     C1 - C4   - H11      CT -   CT - HC  
     2      5      7      1 ;    1.1308e+02    5.4308e+02 ;     C2 - C5   - N1       CT -   CT - x   
     2      5     19      1 ;    1.0959e+02    3.6217e+02 ;     C2 - C5   - H12      CT -   CT - HC  
     2      5     20      1 ;    1.0959e+02    3.6217e+02 ;     C2 - C5   - H13      CT -   CT - HC  
     3      6      7      1 ;    1.1308e+02    5.4308e+02 ;     C3 - C6   - N1       CT -   CT - x   
     3      6     21      1 ;    1.0959e+02    3.6217e+02 ;     C3 - C6   - H14      CT -   CT - HC  
     3      6     22      1 ;    1.0959e+02    3.6217e+02 ;     C3 - C6   - H15      CT -   CT - HC  
     4      1      8      1 ;    1.0968e+02    3.6208e+02 ;     C4 - C1   - H1       CT -   CT - HC  
     4      1      9      1 ;    1.0968e+02    3.6208e+02 ;     C4 - C1   - H2       CT -   CT - HC  
     4      1     10      1 ;    1.0968e+02    3.6208e+02 ;     C4 - C1   - H3       CT -   CT - HC  
     4      7      5      1 ;    1.1242e+02    6.5061e+02 ;     C4 - N1   - C5       CT -    x - CT  
     4      7      6      1 ;    1.1242e+02    6.5061e+02 ;     C4 - N1   - C6       CT -    x - CT  
     5      2     11      1 ;    1.0968e+02    3.6208e+02 ;     C5 - C2   - H4       CT -   CT - HC  
     5      2     12      1 ;    1.0968e+02    3.6208e+02 ;     C5 - C2   - H5       CT -   CT - HC  
     5      2     13      1 ;    1.0968e+02    3.6208e+02 ;     C5 - C2   - H6       CT -   CT - HC  
     5      7      6      1 ;    1.1242e+02    6.5061e+02 ;     C5 - N1   - C6       CT -    x - CT  
     6      3     14      1 ;    1.0968e+02    3.6208e+02 ;     C6 - C3   - H7       CT -   CT - HC  
     6      3     15      1 ;    1.0968e+02    3.6208e+02 ;     C6 - C3   - H8       CT -   CT - HC  
     6      3     16      1 ;    1.0968e+02    3.6208e+02 ;     C6 - C3   - H9       CT -   CT - HC  
     7      4     17      1 ;    1.1009e+02    4.0033e+02 ;     N1 - C4   - H10       x -   CT - HC  
     7      4     18      1 ;    1.1009e+02    4.0033e+02 ;     N1 - C4   - H11       x -   CT - HC  
     7      5     19      1 ;    1.1009e+02    4.0033e+02 ;     N1 - C5   - H12       x -   CT - HC  
     7      5     20      1 ;    1.1009e+02    4.0033e+02 ;     N1 - C5   - H13       x -   CT - HC  
     7      6     21      1 ;    1.1009e+02    4.0033e+02 ;     N1 - C6   - H14       x -   CT - HC  
     7      6     22      1 ;    1.1009e+02    4.0033e+02 ;     N1 - C6   - H15       x -   CT - HC  
     8      1      9      1 ;    1.0773e+02    2.9957e+02 ;     H1 - C1   - H2       HC -   CT - HC  
     8      1     10      1 ;    1.0773e+02    2.9957e+02 ;     H1 - C1   - H3       HC -   CT - HC  
     9      1     10      1 ;    1.0773e+02    2.9957e+02 ;     H2 - C1   - H3       HC -   CT - HC  
    11      2     12      1 ;    1.0773e+02    2.9957e+02 ;     H4 - C2   - H5       HC -   CT - HC  
    11      2     13      1 ;    1.0773e+02    2.9957e+02 ;     H4 - C2   - H6       HC -   CT - HC  
    12      2     13      1 ;    1.0773e+02    2.9957e+02 ;     H5 - C2   - H6       HC -   CT - HC  
    14      3     15      1 ;    1.0773e+02    2.9957e+02 ;     H7 - C3   - H8       HC -   CT - HC  
    14      3     16      1 ;    1.0773e+02    2.9957e+02 ;     H7 - C3   - H9       HC -   CT - HC  
    15      3     16      1 ;    1.0773e+02    2.9957e+02 ;     H8 - C3   - H9       HC -   CT - HC  
    17      4     18      1 ;    1.0855e+02    2.9824e+02 ;    H10 - C4   - H11      HC -   CT - HC  
    19      5     20      1 ;    1.0855e+02    2.9824e+02 ;    H12 - C5   - H13      HC -   CT - HC  
    21      6     22      1 ;    1.0855e+02    2.9824e+02 ;    H14 - C6   - H15      HC -   CT - HC  

[ dihedrals ] ; propers
; for gromacs 4.5 or higher, using funct 9
;    i      j      k      l   func   phase     kd      pn
     1      4      7      5      9 ;     0.00   3.05432   3 ;     C1-    C4-    N1-    C5
     1      4      7      6      9 ;     0.00   3.05432   3 ;     C1-    C4-    N1-    C6
     2      5      7      4      9 ;     0.00   3.05432   3 ;     C2-    C5-    N1-    C4
     2      5      7      6      9 ;     0.00   3.05432   3 ;     C2-    C5-    N1-    C6
     3      6      7      4      9 ;     0.00   3.05432   3 ;     C3-    C6-    N1-    C4
     3      6      7      5      9 ;     0.00   3.05432   3 ;     C3-    C6-    N1-    C5
     4      7      5     19      9 ;     0.00   0.94140   3 ;     C4-    N1-    C5-   H12
     4      7      5     20      9 ;     0.00   0.94140   3 ;     C4-    N1-    C5-   H13
     4      7      6     21      9 ;     0.00   0.94140   3 ;     C4-    N1-    C6-   H14
     4      7      6     22      9 ;     0.00   0.94140   3 ;     C4-    N1-    C6-   H15
     5      7      4     17      9 ;     0.00   0.94140   3 ;     C5-    N1-    C4-   H10
     5      7      4     18      9 ;     0.00   0.94140   3 ;     C5-    N1-    C4-   H11
     5      7      6     21      9 ;     0.00   0.94140   3 ;     C5-    N1-    C6-   H14
     5      7      6     22      9 ;     0.00   0.94140   3 ;     C5-    N1-    C6-   H15
     6      7      4     17      9 ;     0.00   0.94140   3 ;     C6-    N1-    C4-   H10
     6      7      4     18      9 ;     0.00   0.94140   3 ;     C6-    N1-    C4-   H11
     6      7      5     19      9 ;     0.00   0.94140   3 ;     C6-    N1-    C5-   H12
     6      7      5     20      9 ;     0.00   0.94140   3 ;     C6-    N1-    C5-   H13
     7      5      2     11      9 ;     0.00   0.41840   3 ;     N1-    C5-    C2-    H4
     7      5      2     12      9 ;     0.00   0.41840   3 ;     N1-    C5-    C2-    H5
     7      5      2     13      9 ;     0.00   0.41840   3 ;     N1-    C5-    C2-    H6
     7      6      3     14      9 ;     0.00   0.41840   3 ;     N1-    C6-    C3-    H7
     7      6      3     15      9 ;     0.00   0.41840   3 ;     N1-    C6-    C3-    H8
     7      6      3     16      9 ;     0.00   0.41840   3 ;     N1-    C6-    C3-    H9
     8      1      4      7      9 ;     0.00   0.41840   3 ;     H1-    C1-    C4-    N1
     8      1      4     17      9 ;     0.00   0.65084   3 ;     H1-    C1-    C4-   H10
     8      1      4     18      9 ;     0.00   0.65084   3 ;     H1-    C1-    C4-   H11
     9      1      4      7      9 ;     0.00   0.41840   3 ;     H2-    C1-    C4-    N1
     9      1      4     17      9 ;     0.00   0.65084   3 ;     H2-    C1-    C4-   H10
     9      1      4     18      9 ;     0.00   0.65084   3 ;     H2-    C1-    C4-   H11
    10      1      4      7      9 ;     0.00   0.41840   3 ;     H3-    C1-    C4-    N1
    10      1      4     17      9 ;     0.00   0.65084   3 ;     H3-    C1-    C4-   H10
    10      1      4     18      9 ;     0.00   0.65084   3 ;     H3-    C1-    C4-   H11
    11      2      5     19      9 ;     0.00   0.65084   3 ;     H4-    C2-    C5-   H12
    11      2      5     20      9 ;     0.00   0.65084   3 ;     H4-    C2-    C5-   H13
    12      2      5     19      9 ;     0.00   0.65084   3 ;     H5-    C2-    C5-   H12
    12      2      5     20      9 ;     0.00   0.65084   3 ;     H5-    C2-    C5-   H13
    13      2      5     19      9 ;     0.00   0.65084   3 ;     H6-    C2-    C5-   H12
    13      2      5     20      9 ;     0.00   0.65084   3 ;     H6-    C2-    C5-   H13
    14      3      6     21      9 ;     0.00   0.65084   3 ;     H7-    C3-    C6-   H14
    14      3      6     22      9 ;     0.00   0.65084   3 ;     H7-    C3-    C6-   H15
    15      3      6     21      9 ;     0.00   0.65084   3 ;     H8-    C3-    C6-   H14
    15      3      6     22      9 ;     0.00   0.65084   3 ;     H8-    C3-    C6-   H15
    16      3      6     21      9 ;     0.00   0.65084   3 ;     H9-    C3-    C6-   H14
    16      3      6     22      9 ;     0.00   0.65084   3 ;     H9-    C3-    C6-   H15
