mobley_8449031_GMX.gro created by acpype (v: 2023.10.27) on Wed May 20 23:58:01 2026
 22
    1  MOL   C1    1  -0.117  -0.148   0.094
    1  MOL   C2    2   0.100   0.185   0.254
    1  MOL   C3    3   0.288  -0.194   0.219
    1  MOL   C4    4  -0.027  -0.026   0.103
    1  MOL   C5    5   0.175   0.067   0.194
    1  MOL   C6    6   0.166  -0.165   0.134
    1  MOL   N1    7   0.090  -0.052   0.186
    1  MOL   H1    8  -0.064  -0.233   0.050
    1  MOL   H2    9  -0.153  -0.178   0.193
    1  MOL   H3   10  -0.204  -0.126   0.032
    1  MOL   H4   11   0.013   0.211   0.193
    1  MOL   H5   12   0.066   0.162   0.355
    1  MOL   H6   13   0.165   0.273   0.259
    1  MOL   H7   14   0.356  -0.108   0.221
    1  MOL   H8   15   0.260  -0.218   0.323
    1  MOL   H9   16   0.343  -0.280   0.179
    1  MOL  H10   17  -0.083   0.059   0.145
    1  MOL  H11   18   0.006   0.004   0.003
    1  MOL  H12   19   0.263   0.045   0.255
    1  MOL  H13   20   0.210   0.093   0.093
    1  MOL  H14   21   0.101  -0.254   0.131
    1  MOL  H15   22   0.196  -0.144   0.031
   11.20200    11.04400     7.05000
