triethylamine
    22
  -1.1670000  -1.4790000   0.9430000   1.0000000   1.8470000   2.5380000
   2.8800000  -1.9410000   2.1940000  -0.2720000  -0.2550000   1.0310000
   1.7510000   0.6710000   1.9380000   1.6570000  -1.6540000   1.3400000
   0.9010000  -0.5170000   1.8640000  -0.6360000  -2.3270000   0.4970000
  -1.5260000  -1.7810000   1.9320000  -2.0410000  -1.2630000   0.3190000
   0.1270000   2.1110000   1.9310000   0.6560000   1.6230000   3.5540000
   1.6520000   2.7250000   2.5890000   3.5600000  -1.0830000   2.2140000
   2.5980000  -2.1790000   3.2250000   3.4300000  -2.7970000   1.7890000
  -0.8320000   0.5860000   1.4520000   0.0570000   0.0390000   0.0290000
   2.6340000   0.4450000   2.5450000   2.1010000   0.9270000   0.9330000
   1.0080000  -2.5350000   1.3110000   1.9630000  -1.4400000   0.3110000
