; mobley_4687447_GMX.itp created by acpype (v: 2023.10.27) on Wed May 20 23:55:06 2026

[ atomtypes ]
;name   bond_type     mass     charge   ptype   sigma         epsilon       Amb
 c3       c3          0.00000  0.00000   A     3.39771e-01   4.51035e-01 ; 1.91  0.1078
 oh       oh          0.00000  0.00000   A     3.24287e-01   3.89112e-01 ; 1.82  0.0930
 os       os          0.00000  0.00000   A     3.15610e-01   3.03758e-01 ; 1.77  0.0726
 hc       hc          0.00000  0.00000   A     2.60018e-01   8.70272e-02 ; 1.46  0.0208
 h1       h1          0.00000  0.00000   A     2.42200e-01   8.70272e-02 ; 1.36  0.0208
 ho       ho          0.00000  0.00000   A     5.37925e-02   1.96648e-02 ; 0.30  0.0047

[ moleculetype ]
;name            nrexcl
 mobley_4687447   3

[ atoms ]
;   nr  type  resi  res  atom  cgnr     charge      mass       ; qtot   bond_type
     1   c3     1   MOL    C1    1    -0.093100     12.01000 ; qtot -0.093
     2   c3     1   MOL    C2    2    -0.084400     12.01000 ; qtot -0.177
     3   c3     1   MOL    C3    3     0.132400     12.01000 ; qtot -0.045
     4   c3     1   MOL    C4    4     0.125400     12.01000 ; qtot 0.080
     5   c3     1   MOL    C5    5     0.093400     12.01000 ; qtot 0.174
     6   oh     1   MOL    O1    6    -0.594801     16.00000 ; qtot -0.421
     7   os     1   MOL    O2    7    -0.423600     16.00000 ; qtot -0.845
     8   hc     1   MOL    H1    8     0.035367      1.00800 ; qtot -0.809
     9   hc     1   MOL    H2    9     0.035367      1.00800 ; qtot -0.774
    10   hc     1   MOL    H3   10     0.035367      1.00800 ; qtot -0.739
    11   hc     1   MOL    H4   11     0.054200      1.00800 ; qtot -0.684
    12   hc     1   MOL    H5   12     0.054200      1.00800 ; qtot -0.630
    13   h1     1   MOL    H6   13     0.026700      1.00800 ; qtot -0.603
    14   h1     1   MOL    H7   14     0.026700      1.00800 ; qtot -0.577
    15   h1     1   MOL    H8   15     0.059200      1.00800 ; qtot -0.518
    16   h1     1   MOL    H9   16     0.059200      1.00800 ; qtot -0.458
    17   h1     1   MOL   H10   17     0.030700      1.00800 ; qtot -0.428
    18   h1     1   MOL   H11   18     0.030700      1.00800 ; qtot -0.397
    19   ho     1   MOL   H12   19     0.397000      1.00800 ; qtot 0.000

[ bonds ]
;   ai     aj funct   r             k
     1      2   1    1.5354e-01    1.9154e+05 ;     C1 - C2    
     1      8   1    1.0962e-01    2.8891e+05 ;     C1 - H1    
     1      9   1    1.0962e-01    2.8891e+05 ;     C1 - H2    
     1     10   1    1.0962e-01    2.8891e+05 ;     C1 - H3    
     2      3   1    1.5354e-01    1.9154e+05 ;     C2 - C3    
     2     11   1    1.0962e-01    2.8891e+05 ;     C2 - H4    
     2     12   1    1.0962e-01    2.8891e+05 ;     C2 - H5    
     3      7   1    1.4273e-01    2.3620e+05 ;     C3 - O2    
     3     13   1    1.0969e-01    2.8804e+05 ;     C3 - H6    
     3     14   1    1.0969e-01    2.8804e+05 ;     C3 - H7    
     4      5   1    1.5354e-01    1.9154e+05 ;     C4 - C5    
     4      6   1    1.4242e-01    2.3861e+05 ;     C4 - O1    
     4     15   1    1.0969e-01    2.8804e+05 ;     C4 - H8    
     4     16   1    1.0969e-01    2.8804e+05 ;     C4 - H9    
     5      7   1    1.4273e-01    2.3620e+05 ;     C5 - O2    
     5     17   1    1.0969e-01    2.8804e+05 ;     C5 - H10   
     5     18   1    1.0969e-01    2.8804e+05 ;     C5 - H11   
     6     19   1    9.7250e-02    4.4811e+05 ;     O1 - H12   

[ pairs ]
;   ai     aj    funct
     1      7      1 ;     C1 - O2    
     1     13      1 ;     C1 - H6    
     1     14      1 ;     C1 - H7    
     2      5      1 ;     C2 - C5    
     3      4      1 ;     C3 - C4    
     3     17      1 ;     C3 - H10   
     3     18      1 ;     C3 - H11   
     5     13      1 ;     C5 - H6    
     5     14      1 ;     C5 - H7    
     5     19      1 ;     C5 - H12   
     6      7      1 ;     O1 - O2    
     6     17      1 ;     O1 - H10   
     6     18      1 ;     O1 - H11   
     7     11      1 ;     O2 - H4    
     7     12      1 ;     O2 - H5    
     7     15      1 ;     O2 - H8    
     7     16      1 ;     O2 - H9    
     8      3      1 ;     H1 - C3    
     8     11      1 ;     H1 - H4    
     8     12      1 ;     H1 - H5    
     9      3      1 ;     H2 - C3    
     9     11      1 ;     H2 - H4    
     9     12      1 ;     H2 - H5    
    10      3      1 ;     H3 - C3    
    10     11      1 ;     H3 - H4    
    10     12      1 ;     H3 - H5    
    11     13      1 ;     H4 - H6    
    11     14      1 ;     H4 - H7    
    12     13      1 ;     H5 - H6    
    12     14      1 ;     H5 - H7    
    15     17      1 ;     H8 - H10   
    15     18      1 ;     H8 - H11   
    15     19      1 ;     H8 - H12   
    16     17      1 ;     H9 - H10   
    16     18      1 ;     H9 - H11   
    16     19      1 ;     H9 - H12   

[ angles ]
;   ai     aj     ak    funct   theta         cth
     1      2      3      1    1.1263e+02    5.0099e+02 ;     C1 - C2     - C3    
     1      2     11      1    1.0968e+02    3.6208e+02 ;     C1 - C2     - H4    
     1      2     12      1    1.0968e+02    3.6208e+02 ;     C1 - C2     - H5    
     2      1      8      1    1.0968e+02    3.6208e+02 ;     C2 - C1     - H1    
     2      1      9      1    1.0968e+02    3.6208e+02 ;     C2 - C1     - H2    
     2      1     10      1    1.0968e+02    3.6208e+02 ;     C2 - C1     - H3    
     2      3      7      1    1.0762e+02    6.4802e+02 ;     C2 - C3     - O2    
     2      3     13      1    1.0959e+02    3.6217e+02 ;     C2 - C3     - H6    
     2      3     14      1    1.0959e+02    3.6217e+02 ;     C2 - C3     - H7    
     3      2     11      1    1.0968e+02    3.6208e+02 ;     C3 - C2     - H4    
     3      2     12      1    1.0968e+02    3.6208e+02 ;     C3 - C2     - H5    
     3      7      5      1    1.1360e+02    7.3915e+02 ;     C3 - O2     - C5    
     4      5      7      1    1.0762e+02    6.4802e+02 ;     C4 - C5     - O2    
     4      5     17      1    1.0959e+02    3.6217e+02 ;     C4 - C5     - H10   
     4      5     18      1    1.0959e+02    3.6217e+02 ;     C4 - C5     - H11   
     4      6     19      1    1.0739e+02    5.4501e+02 ;     C4 - O1     - H12   
     5      4      6      1    1.0966e+02    6.4258e+02 ;     C5 - C4     - O1    
     5      4     15      1    1.0959e+02    3.6217e+02 ;     C5 - C4     - H8    
     5      4     16      1    1.0959e+02    3.6217e+02 ;     C5 - C4     - H9    
     6      4     15      1    1.1038e+02    4.7103e+02 ;     O1 - C4     - H8    
     6      4     16      1    1.1038e+02    4.7103e+02 ;     O1 - C4     - H9    
     7      3     13      1    1.1034e+02    4.7028e+02 ;     O2 - C3     - H6    
     7      3     14      1    1.1034e+02    4.7028e+02 ;     O2 - C3     - H7    
     7      5     17      1    1.1034e+02    4.7028e+02 ;     O2 - C5     - H10   
     7      5     18      1    1.1034e+02    4.7028e+02 ;     O2 - C5     - H11   
     8      1      9      1    1.0773e+02    2.9957e+02 ;     H1 - C1     - H2    
     8      1     10      1    1.0773e+02    2.9957e+02 ;     H1 - C1     - H3    
     9      1     10      1    1.0773e+02    2.9957e+02 ;     H2 - C1     - H3    
    11      2     12      1    1.0773e+02    2.9957e+02 ;     H4 - C2     - H5    
    13      3     14      1    1.0855e+02    2.9824e+02 ;     H6 - C3     - H7    
    15      4     16      1    1.0855e+02    2.9824e+02 ;     H8 - C4     - H9    
    17      5     18      1    1.0855e+02    2.9824e+02 ;    H10 - C5     - H11   

[ dihedrals ] ; propers
; for gromacs 4.5 or higher, using funct 9
;    i      j      k      l   func   phase     kd      pn
     1      2      3      7      9     0.00   0.65084   3 ;     C1-    C2-    C3-    O2
     1      2      3     13      9     0.00   0.65084   3 ;     C1-    C2-    C3-    H6
     1      2      3     14      9     0.00   0.65084   3 ;     C1-    C2-    C3-    H7
     2      3      7      5      9     0.00   0.33472   2 ;     C2-    C3-    O2-    C5
     2      3      7      5      9     0.00   3.13800   3 ;     C2-    C3-    O2-    C5
     2      3      7      5      9   180.00   3.68192   1 ;     C2-    C3-    O2-    C5
     3      7      5      4      9     0.00   0.33472   2 ;     C3-    O2-    C5-    C4
     3      7      5      4      9     0.00   3.13800   3 ;     C3-    O2-    C5-    C4
     3      7      5      4      9   180.00   3.68192   1 ;     C3-    O2-    C5-    C4
     3      7      5     17      9     0.00   1.41001   3 ;     C3-    O2-    C5-   H10
     3      7      5     18      9     0.00   1.41001   3 ;     C3-    O2-    C5-   H11
     5      4      6     19      9     0.00   0.25104   3 ;     C5-    C4-    O1-   H12
     5      7      3     13      9     0.00   1.41001   3 ;     C5-    O2-    C3-    H6
     5      7      3     14      9     0.00   1.41001   3 ;     C5-    O2-    C3-    H7
     6      4      5      7      9     0.00   0.65084   3 ;     O1-    C4-    C5-    O2
     6      4      5     17      9     0.00   0.00000   0 ;     O1-    C4-    C5-   H10
     6      4      5     17      9     0.00   1.04600   1 ;     O1-    C4-    C5-   H10
     6      4      5     18      9     0.00   0.00000   0 ;     O1-    C4-    C5-   H11
     6      4      5     18      9     0.00   1.04600   1 ;     O1-    C4-    C5-   H11
     7      3      2     11      9     0.00   0.00000   0 ;     O2-    C3-    C2-    H4
     7      3      2     11      9     0.00   1.04600   1 ;     O2-    C3-    C2-    H4
     7      3      2     12      9     0.00   0.00000   0 ;     O2-    C3-    C2-    H5
     7      3      2     12      9     0.00   1.04600   1 ;     O2-    C3-    C2-    H5
     7      5      4     15      9     0.00   0.00000   0 ;     O2-    C5-    C4-    H8
     7      5      4     15      9     0.00   1.04600   1 ;     O2-    C5-    C4-    H8
     7      5      4     16      9     0.00   0.00000   0 ;     O2-    C5-    C4-    H9
     7      5      4     16      9     0.00   1.04600   1 ;     O2-    C5-    C4-    H9
     8      1      2      3      9     0.00   0.54392   3 ;     H1-    C1-    C2-    C3
     8      1      2     11      9     0.00   0.50208   3 ;     H1-    C1-    C2-    H4
     8      1      2     12      9     0.00   0.50208   3 ;     H1-    C1-    C2-    H5
     9      1      2      3      9     0.00   0.54392   3 ;     H2-    C1-    C2-    C3
     9      1      2     11      9     0.00   0.50208   3 ;     H2-    C1-    C2-    H4
     9      1      2     12      9     0.00   0.50208   3 ;     H2-    C1-    C2-    H5
    10      1      2      3      9     0.00   0.54392   3 ;     H3-    C1-    C2-    C3
    10      1      2     11      9     0.00   0.50208   3 ;     H3-    C1-    C2-    H4
    10      1      2     12      9     0.00   0.50208   3 ;     H3-    C1-    C2-    H5
    11      2      3     13      9     0.00   0.65084   3 ;     H4-    C2-    C3-    H6
    11      2      3     14      9     0.00   0.65084   3 ;     H4-    C2-    C3-    H7
    12      2      3     13      9     0.00   0.65084   3 ;     H5-    C2-    C3-    H6
    12      2      3     14      9     0.00   0.65084   3 ;     H5-    C2-    C3-    H7
    15      4      5     17      9     0.00   0.65084   3 ;     H8-    C4-    C5-   H10
    15      4      5     18      9     0.00   0.65084   3 ;     H8-    C4-    C5-   H11
    15      4      6     19      9     0.00   0.51463   3 ;     H8-    C4-    O1-   H12
    16      4      5     17      9     0.00   0.65084   3 ;     H9-    C4-    C5-   H10
    16      4      5     18      9     0.00   0.65084   3 ;     H9-    C4-    C5-   H11
    16      4      6     19      9     0.00   0.51463   3 ;     H9-    C4-    O1-   H12
