%VERSION  VERSION_STAMP = V0001.000  DATE = 05/20/26  23:55:12                  
%FLAG TITLE                                                                     
%FORMAT(20a4)                                                                   
2_propoxyethanol                                                                
%FLAG POINTERS                                                                  
%FORMAT(10I8)                                                                   
      19       6      12       6      27       5      38       8       0       0
      89       1       6       5       8       6      11      11       6       0
       0       0       0       0       0       0       0       0      19       0
       0
%FLAG ATOM_NAME                                                                 
%FORMAT(20a4)                                                                   
C1  C2  C3  C4  C5  O1  O2  H1  H2  H3  H4  H5  H6  H7  H8  H9  H10 H11 H12 
%FLAG CHARGE                                                                    
%FORMAT(5E16.8)                                                                 
 -1.69649613E+00 -1.53796212E+00  2.41263252E+00  2.28507642E+00  1.70196282E+00
 -1.08204017E+01 -7.71896628E+00  6.44468084E-01  6.44468084E-01  6.44468084E-01
  9.87648660E-01  9.87648660E-01  4.86535410E-01  4.86535410E-01  1.07876016E+00
  1.07876016E+00  5.59424610E-01  5.59424610E-01  7.23425310E+00
%FLAG ATOMIC_NUMBER                                                             
%FORMAT(10I8)                                                                   
       6       6       6       6       6       8       8       1       1       1
       1       1       1       1       1       1       1       1       1
%FLAG MASS                                                                      
%FORMAT(5E16.8)                                                                 
  1.20100000E+01  1.20100000E+01  1.20100000E+01  1.20100000E+01  1.20100000E+01
  1.60000000E+01  1.60000000E+01  1.00800000E+00  1.00800000E+00  1.00800000E+00
  1.00800000E+00  1.00800000E+00  1.00800000E+00  1.00800000E+00  1.00800000E+00
  1.00800000E+00  1.00800000E+00  1.00800000E+00  1.00800000E+00
%FLAG ATOM_TYPE_INDEX                                                           
%FORMAT(10I8)                                                                   
       1       1       1       1       1       2       3       4       4       4
       4       4       5       5       5       5       5       5       6
%FLAG NUMBER_EXCLUDED_ATOMS                                                     
%FORMAT(10I8)                                                                   
      10      10      12       8       9       6       8       4       3       2
       3       2       1       1       4       3       1       1       1
%FLAG NONBONDED_PARM_INDEX                                                      
%FORMAT(10I8)                                                                   
       1       2       4       7      11      16       2       3       5       8
      12      17       4       5       6       9      13      18       7       8
       9      10      14      19      11      12      13      14      15      20
      16      17      18      19      20      21
%FLAG RESIDUE_LABEL                                                             
%FORMAT(20a4)                                                                   
MOL 
%FLAG RESIDUE_POINTER                                                           
%FORMAT(10I8)                                                                   
       1
%FLAG BOND_FORCE_CONSTANT                                                       
%FORMAT(5E16.8)                                                                 
  2.28890000E+02  3.45250000E+02  2.82270000E+02  3.44220000E+02  2.85150000E+02
  5.35510000E+02
%FLAG BOND_EQUIL_VALUE                                                          
%FORMAT(5E16.8)                                                                 
  1.53540000E+00  1.09620000E+00  1.42730000E+00  1.09690000E+00  1.42420000E+00
  9.72500000E-01
%FLAG ANGLE_FORCE_CONSTANT                                                      
%FORMAT(5E16.8)                                                                 
  5.98700000E+01  4.32700000E+01  7.74400000E+01  4.32800000E+01  8.83300000E+01
  6.51300000E+01  7.67900000E+01  5.62900000E+01  5.62000000E+01  3.58000000E+01
  3.56400000E+01
%FLAG ANGLE_EQUIL_VALUE                                                         
%FORMAT(5E16.8)                                                                 
  1.96576518E+00  1.91427794E+00  1.87832415E+00  1.91270715E+00  1.98269488E+00
  1.87430989E+00  1.91392888E+00  1.92649525E+00  1.92579712E+00  1.88024401E+00
  1.89455572E+00
%FLAG DIHEDRAL_FORCE_CONSTANT                                                   
%FORMAT(5E16.8)                                                                 
  1.55555556E-01  8.80000000E-01  8.00000000E-02  7.50000000E-01  1.30000000E-01
  3.37000000E-01  6.00000000E-02  2.50000000E-01  0.00000000E+00  1.20000000E-01
  1.23000000E-01
%FLAG DIHEDRAL_PERIODICITY                                                      
%FORMAT(5E16.8)                                                                 
  3.00000000E+00  1.00000000E+00  2.00000000E+00  3.00000000E+00  3.00000000E+00
  3.00000000E+00  3.00000000E+00  1.00000000E+00  3.00000000E+00  3.00000000E+00
  3.00000000E+00
%FLAG DIHEDRAL_PHASE                                                            
%FORMAT(5E16.8)                                                                 
  0.00000000E+00  3.14159400E+00  0.00000000E+00  0.00000000E+00  0.00000000E+00
  0.00000000E+00  0.00000000E+00  0.00000000E+00  0.00000000E+00  0.00000000E+00
  0.00000000E+00
%FLAG SCEE_SCALE_FACTOR                                                         
%FORMAT(5E16.8)                                                                 
  1.20000000E+00  1.20000000E+00  1.20000000E+00  1.20000000E+00  1.20000000E+00
  1.20000000E+00  1.20000000E+00  1.20000000E+00  1.20000000E+00  1.20000000E+00
  1.20000000E+00
%FLAG SCNB_SCALE_FACTOR                                                         
%FORMAT(5E16.8)                                                                 
  2.00000000E+00  2.00000000E+00  2.00000000E+00  2.00000000E+00  2.00000000E+00
  2.00000000E+00  2.00000000E+00  2.00000000E+00  2.00000000E+00  2.00000000E+00
  2.00000000E+00
%FLAG SOLTY                                                                     
%FORMAT(5E16.8)                                                                 
  0.00000000E+00  0.00000000E+00  0.00000000E+00  0.00000000E+00  0.00000000E+00
  0.00000000E+00
%FLAG LENNARD_JONES_ACOEF                                                       
%FORMAT(5E16.8)                                                                 
  1.02073671E+06  7.18991463E+05  5.03152404E+05  5.42502534E+05  3.78207390E+05
  2.83662575E+05  1.00235148E+05  6.80216136E+04  5.02224902E+04  7.94617769E+03
  6.97998263E+04  4.69084694E+04  3.44374471E+04  5.22955465E+03  3.39005767E+03
  3.03553352E+02  1.74176419E+02  1.16469347E+02  8.80612241E+00  4.36660257E+00
  1.10360882E-05
%FLAG LENNARD_JONES_BCOEF                                                       
%FORMAT(5E16.8)                                                                 
  6.63431737E+02  5.36620538E+02  4.32634597E+02  4.38146883E+02  3.52573684E+02
  2.87011518E+02  1.37787728E+02  1.09393126E+02  8.83545880E+01  2.57122925E+01
  1.14981426E+02  9.08431526E+01  7.31636661E+01  2.08590256E+01  1.67944276E+01
  5.22789272E+00  3.81654050E+00  2.93355636E+00  5.90150328E-01  4.15568027E-01
  4.55498033E-04
%FLAG BONDS_INC_HYDROGEN                                                        
%FORMAT(10I8)                                                                   
       0      21       2       0      24       2       0      27       2       3
      30       2       3      33       2       6      36       4       6      39
       4       9      42       4       9      45       4      12      48       4
      12      51       4      15      54       6
%FLAG BONDS_WITHOUT_HYDROGEN                                                    
%FORMAT(10I8)                                                                   
       0       3       1       3       6       1       6      18       3       9
      12       1       9      15       5      12      18       3
%FLAG ANGLES_INC_HYDROGEN                                                       
%FORMAT(10I8)                                                                   
       0       3      30       2       0       3      33       2       3       0
      21       2       3       0      24       2       3       0      27       2
       3       6      36       4       3       6      39       4       6       3
      30       2       6       3      33       2       9      12      48       4
       9      12      51       4       9      15      54       6      12       9
      42       4      12       9      45       4      15       9      42       8
      15       9      45       8      18       6      36       9      18       6
      39       9      18      12      48       9      18      12      51       9
      21       0      24      10      21       0      27      10      24       0
      27      10      30       3      33      10      36       6      39      11
      42       9      45      11      48      12      51      11
%FLAG ANGLES_WITHOUT_HYDROGEN                                                   
%FORMAT(10I8)                                                                   
       0       3       6       1       3       6      18       3       6      18
      12       5       9      12      18       3      12       9      15       7
%FLAG DIHEDRALS_INC_HYDROGEN                                                    
%FORMAT(10I8)                                                                   
       0       3       6      36       1       0       3       6      39       1
      21       0       3       6       5      24       0       3       6       5
      27       0       3       6       5       6      18      12      48       6
       6      18      12      51       6      12       9      15      54       7
      12      18       6      36       6      12      18       6      39       6
      15       9      12      48       8      15       9     -12      48       9
      15       9      12      51       8      15       9     -12      51       9
      18       6       3      30       8      18       6      -3      30       9
      18       6       3      33       8      18       6      -3      33       9
      18      12       9      42       8      18      12      -9      42       9
      18      12       9      45       8      18      12      -9      45       9
      21       0       3      30      10      21       0       3      33      10
      24       0       3      30      10      24       0       3      33      10
      27       0       3      30      10      27       0       3      33      10
      30       3       6      36       1      30       3       6      39       1
      33       3       6      36       1      33       3       6      39       1
      42       9      12      48       1      42       9      12      51       1
      42       9      15      54      11      45       9      12      48       1
      45       9      12      51       1      45       9      15      54      11
%FLAG DIHEDRALS_WITHOUT_HYDROGEN                                                
%FORMAT(10I8)                                                                   
       0       3       6      18       1       3       6      18      12       2
       3       6     -18      12       3       3       6     -18      12       4
       6      18      12       9       2       6      18     -12       9       3
       6      18     -12       9       4      15       9      12      18       1
%FLAG EXCLUDED_ATOMS_LIST                                                       
%FORMAT(10I8)                                                                   
       2       3       7       8       9      10      11      12      13      14
       3       5       7       8       9      10      11      12      13      14
       4       5       7       8       9      10      11      12      13      14
      17      18       5       6       7      15      16      17      18      19
       6       7      13      14      15      16      17      18      19       7
      15      16      17      18      19      11      12      13      14      15
      16      17      18       9      10      11      12      10      11      12
      11      12      12      13      14      13      14      14       0      16
      17      18      19      17      18      19      18       0       0
%FLAG HBOND_ACOEF                                                               
%FORMAT(5E16.8)                                                                 

%FLAG HBOND_BCOEF                                                               
%FORMAT(5E16.8)                                                                 

%FLAG HBCUT                                                                     
%FORMAT(5E16.8)                                                                 

%FLAG AMBER_ATOM_TYPE                                                           
%FORMAT(20a4)                                                                   
c3  c3  c3  c3  c3  oh  os  hc  hc  hc  hc  hc  h1  h1  h1  h1  h1  h1  ho  
%FLAG TREE_CHAIN_CLASSIFICATION                                                 
%FORMAT(20a4)                                                                   
BLA BLA BLA BLA BLA BLA BLA BLA BLA BLA BLA BLA BLA BLA BLA BLA BLA BLA BLA 
%FLAG JOIN_ARRAY                                                                
%FORMAT(10I8)                                                                   
       0       0       0       0       0       0       0       0       0       0
       0       0       0       0       0       0       0       0       0
%FLAG IROTAT                                                                    
%FORMAT(10I8)                                                                   
       0       0       0       0       0       0       0       0       0       0
       0       0       0       0       0       0       0       0       0
%FLAG RADIUS_SET                                                                
%FORMAT(1a80)                                                                   
modified Bondi radii (mbondi)                                                   
%FLAG RADII                                                                     
%FORMAT(5E16.8)                                                                 
  1.70000000E+00  1.70000000E+00  1.70000000E+00  1.70000000E+00  1.70000000E+00
  1.50000000E+00  1.50000000E+00  1.30000000E+00  1.30000000E+00  1.30000000E+00
  1.30000000E+00  1.30000000E+00  1.30000000E+00  1.30000000E+00  1.30000000E+00
  1.30000000E+00  1.30000000E+00  1.30000000E+00  8.00000000E-01
%FLAG SCREEN                                                                    
%FORMAT(5E16.8)                                                                 
  7.20000000E-01  7.20000000E-01  7.20000000E-01  7.20000000E-01  7.20000000E-01
  8.50000000E-01  8.50000000E-01  8.50000000E-01  8.50000000E-01  8.50000000E-01
  8.50000000E-01  8.50000000E-01  8.50000000E-01  8.50000000E-01  8.50000000E-01
  8.50000000E-01  8.50000000E-01  8.50000000E-01  8.50000000E-01
%FLAG IPOL                                                                      
%FORMAT(1I8)                                                                    
       0
