2_propoxyethanol
    19
  -0.0090000  -0.6550000   0.8770000   1.2440000  -0.4430000   1.7060000
   1.2750000  -1.3490000   2.9270000   3.8460000  -1.6030000   5.5460000
   2.5500000  -1.9090000   4.8200000   4.9400000  -1.8940000   4.6860000
   2.4630000  -1.0900000   3.6620000  -0.9080000  -0.4410000   1.4640000
  -0.0060000   0.0090000   0.0070000  -0.0720000  -1.6870000   0.5170000
   1.3080000   0.6040000   2.0230000   2.1330000  -0.6260000   1.0900000
   0.4150000  -1.1590000   3.5770000   1.2710000  -2.4040000   2.6320000
   3.9480000  -2.2170000   6.4470000   3.8930000  -0.5440000   5.8150000
   1.6830000  -1.6970000   5.4540000   2.5270000  -2.9560000   4.5030000
   5.5110000  -2.5180000   5.1620000
