; mobley_4687447_GMX_OPLS.itp created by acpype (v: 2023.10.27) on Wed May 20 23:55:06 2026

; For OPLS atomtypes manual fine tuning
; AC_at:OPLS_at:OPLScode: Possible_Alternatives (see ffoplsaa.atp and ffoplsaanb.itp)
; c3:CT:opls_135: ['136', '137', '149', '157', '158', '206', '209', '210', '223B', '224B', '245', '246', '274', '283', '284', '285', '292', '292B', '293B', '296', '307', '308', '505']
; oh:OH:opls_154: ['167']
; os:x:opls_x: []
; hc:HC:opls_140: []
; h1:HC:opls_140: []
; ho:HO:opls_155: ['168']

[ moleculetype ]
;name            nrexcl
 mobley_4687447   3

[ atoms ]
;   nr  type  resi  res  atom  cgnr     charge      mass       ; qtot   bond_type
     1 opls_135     1   MOL    C1    1    -0.093100     12.01100 ; qtot -0.093  CT  
     2 opls_135     1   MOL    C2    2    -0.084400     12.01100 ; qtot -0.177  CT  
     3 opls_135     1   MOL    C3    3     0.132400     12.01100 ; qtot -0.045  CT  
     4 opls_135     1   MOL    C4    4     0.125400     12.01100 ; qtot  0.080  CT  
     5 opls_135     1   MOL    C5    5     0.093400     12.01100 ; qtot  0.174  CT  
     6 opls_154     1   MOL    O1    6    -0.594801     15.99940 ; qtot -0.421  OH  
     7 opls_x     1   MOL    O2    7    -0.423600      0.00000 ; qtot -0.845  x   
     8 opls_140     1   MOL    H1    8     0.035367      1.00800 ; qtot -0.809  HC  
     9 opls_140     1   MOL    H2    9     0.035367      1.00800 ; qtot -0.774  HC  
    10 opls_140     1   MOL    H3   10     0.035367      1.00800 ; qtot -0.739  HC  
    11 opls_140     1   MOL    H4   11     0.054200      1.00800 ; qtot -0.684  HC  
    12 opls_140     1   MOL    H5   12     0.054200      1.00800 ; qtot -0.630  HC  
    13 opls_140     1   MOL    H6   13     0.026700      1.00800 ; qtot -0.603  HC  
    14 opls_140     1   MOL    H7   14     0.026700      1.00800 ; qtot -0.577  HC  
    15 opls_140     1   MOL    H8   15     0.059200      1.00800 ; qtot -0.518  HC  
    16 opls_140     1   MOL    H9   16     0.059200      1.00800 ; qtot -0.458  HC  
    17 opls_140     1   MOL   H10   17     0.030700      1.00800 ; qtot -0.428  HC  
    18 opls_140     1   MOL   H11   18     0.030700      1.00800 ; qtot -0.397  HC  
    19 opls_155     1   MOL   H12   19     0.397000      1.00800 ; qtot  0.000  HO  

[ bonds ]
;   ai     aj funct   r             k
     1      2   1 ;    1.5354e-01    1.9154e+05 ;     C1 - C2         CT - CT    
     1      8   1 ;    1.0962e-01    2.8891e+05 ;     C1 - H1         CT - HC    
     1      9   1 ;    1.0962e-01    2.8891e+05 ;     C1 - H2         CT - HC    
     1     10   1 ;    1.0962e-01    2.8891e+05 ;     C1 - H3         CT - HC    
     2      3   1 ;    1.5354e-01    1.9154e+05 ;     C2 - C3         CT - CT    
     2     11   1 ;    1.0962e-01    2.8891e+05 ;     C2 - H4         CT - HC    
     2     12   1 ;    1.0962e-01    2.8891e+05 ;     C2 - H5         CT - HC    
     3      7   1 ;    1.4273e-01    2.3620e+05 ;     C3 - O2         CT - x     
     3     13   1 ;    1.0969e-01    2.8804e+05 ;     C3 - H6         CT - HC    
     3     14   1 ;    1.0969e-01    2.8804e+05 ;     C3 - H7         CT - HC    
     4      5   1 ;    1.5354e-01    1.9154e+05 ;     C4 - C5         CT - CT    
     4      6   1 ;    1.4242e-01    2.3861e+05 ;     C4 - O1         CT - OH    
     4     15   1 ;    1.0969e-01    2.8804e+05 ;     C4 - H8         CT - HC    
     4     16   1 ;    1.0969e-01    2.8804e+05 ;     C4 - H9         CT - HC    
     5      7   1 ;    1.4273e-01    2.3620e+05 ;     C5 - O2         CT - x     
     5     17   1 ;    1.0969e-01    2.8804e+05 ;     C5 - H10        CT - HC    
     5     18   1 ;    1.0969e-01    2.8804e+05 ;     C5 - H11        CT - HC    
     6     19   1 ;    9.7250e-02    4.4811e+05 ;     O1 - H12        OH - HO    

[ pairs ]
;   ai     aj    funct
     1      7      1 ;     C1 - O2    
     1     13      1 ;     C1 - H6    
     1     14      1 ;     C1 - H7    
     2      5      1 ;     C2 - C5    
     3      4      1 ;     C3 - C4    
     3     17      1 ;     C3 - H10   
     3     18      1 ;     C3 - H11   
     5     13      1 ;     C5 - H6    
     5     14      1 ;     C5 - H7    
     5     19      1 ;     C5 - H12   
     6      7      1 ;     O1 - O2    
     6     17      1 ;     O1 - H10   
     6     18      1 ;     O1 - H11   
     7     11      1 ;     O2 - H4    
     7     12      1 ;     O2 - H5    
     7     15      1 ;     O2 - H8    
     7     16      1 ;     O2 - H9    
     8      3      1 ;     H1 - C3    
     8     11      1 ;     H1 - H4    
     8     12      1 ;     H1 - H5    
     9      3      1 ;     H2 - C3    
     9     11      1 ;     H2 - H4    
     9     12      1 ;     H2 - H5    
    10      3      1 ;     H3 - C3    
    10     11      1 ;     H3 - H4    
    10     12      1 ;     H3 - H5    
    11     13      1 ;     H4 - H6    
    11     14      1 ;     H4 - H7    
    12     13      1 ;     H5 - H6    
    12     14      1 ;     H5 - H7    
    15     17      1 ;     H8 - H10   
    15     18      1 ;     H8 - H11   
    15     19      1 ;     H8 - H12   
    16     17      1 ;     H9 - H10   
    16     18      1 ;     H9 - H11   
    16     19      1 ;     H9 - H12   

[ angles ]
;   ai     aj     ak    funct   theta         cth
     1      2      3      1 ;    1.1263e+02    5.0099e+02 ;     C1 - C2   - C3       CT -   CT - CT  
     1      2     11      1 ;    1.0968e+02    3.6208e+02 ;     C1 - C2   - H4       CT -   CT - HC  
     1      2     12      1 ;    1.0968e+02    3.6208e+02 ;     C1 - C2   - H5       CT -   CT - HC  
     2      1      8      1 ;    1.0968e+02    3.6208e+02 ;     C2 - C1   - H1       CT -   CT - HC  
     2      1      9      1 ;    1.0968e+02    3.6208e+02 ;     C2 - C1   - H2       CT -   CT - HC  
     2      1     10      1 ;    1.0968e+02    3.6208e+02 ;     C2 - C1   - H3       CT -   CT - HC  
     2      3      7      1 ;    1.0762e+02    6.4802e+02 ;     C2 - C3   - O2       CT -   CT - x   
     2      3     13      1 ;    1.0959e+02    3.6217e+02 ;     C2 - C3   - H6       CT -   CT - HC  
     2      3     14      1 ;    1.0959e+02    3.6217e+02 ;     C2 - C3   - H7       CT -   CT - HC  
     3      2     11      1 ;    1.0968e+02    3.6208e+02 ;     C3 - C2   - H4       CT -   CT - HC  
     3      2     12      1 ;    1.0968e+02    3.6208e+02 ;     C3 - C2   - H5       CT -   CT - HC  
     3      7      5      1 ;    1.1360e+02    7.3915e+02 ;     C3 - O2   - C5       CT -    x - CT  
     4      5      7      1 ;    1.0762e+02    6.4802e+02 ;     C4 - C5   - O2       CT -   CT - x   
     4      5     17      1 ;    1.0959e+02    3.6217e+02 ;     C4 - C5   - H10      CT -   CT - HC  
     4      5     18      1 ;    1.0959e+02    3.6217e+02 ;     C4 - C5   - H11      CT -   CT - HC  
     4      6     19      1 ;    1.0739e+02    5.4501e+02 ;     C4 - O1   - H12      CT -   OH - HO  
     5      4      6      1 ;    1.0966e+02    6.4258e+02 ;     C5 - C4   - O1       CT -   CT - OH  
     5      4     15      1 ;    1.0959e+02    3.6217e+02 ;     C5 - C4   - H8       CT -   CT - HC  
     5      4     16      1 ;    1.0959e+02    3.6217e+02 ;     C5 - C4   - H9       CT -   CT - HC  
     6      4     15      1 ;    1.1038e+02    4.7103e+02 ;     O1 - C4   - H8       OH -   CT - HC  
     6      4     16      1 ;    1.1038e+02    4.7103e+02 ;     O1 - C4   - H9       OH -   CT - HC  
     7      3     13      1 ;    1.1034e+02    4.7028e+02 ;     O2 - C3   - H6        x -   CT - HC  
     7      3     14      1 ;    1.1034e+02    4.7028e+02 ;     O2 - C3   - H7        x -   CT - HC  
     7      5     17      1 ;    1.1034e+02    4.7028e+02 ;     O2 - C5   - H10       x -   CT - HC  
     7      5     18      1 ;    1.1034e+02    4.7028e+02 ;     O2 - C5   - H11       x -   CT - HC  
     8      1      9      1 ;    1.0773e+02    2.9957e+02 ;     H1 - C1   - H2       HC -   CT - HC  
     8      1     10      1 ;    1.0773e+02    2.9957e+02 ;     H1 - C1   - H3       HC -   CT - HC  
     9      1     10      1 ;    1.0773e+02    2.9957e+02 ;     H2 - C1   - H3       HC -   CT - HC  
    11      2     12      1 ;    1.0773e+02    2.9957e+02 ;     H4 - C2   - H5       HC -   CT - HC  
    13      3     14      1 ;    1.0855e+02    2.9824e+02 ;     H6 - C3   - H7       HC -   CT - HC  
    15      4     16      1 ;    1.0855e+02    2.9824e+02 ;     H8 - C4   - H9       HC -   CT - HC  
    17      5     18      1 ;    1.0855e+02    2.9824e+02 ;    H10 - C5   - H11      HC -   CT - HC  

[ dihedrals ] ; propers
; for gromacs 4.5 or higher, using funct 9
;    i      j      k      l   func   phase     kd      pn
     1      2      3      7      9 ;     0.00   0.65084   3 ;     C1-    C2-    C3-    O2
     1      2      3     13      9 ;     0.00   0.65084   3 ;     C1-    C2-    C3-    H6
     1      2      3     14      9 ;     0.00   0.65084   3 ;     C1-    C2-    C3-    H7
     2      3      7      5      9 ;     0.00   0.33472   2 ;     C2-    C3-    O2-    C5
     2      3      7      5      9 ;     0.00   3.13800   3 ;     C2-    C3-    O2-    C5
     2      3      7      5      9 ;   180.00   3.68192   1 ;     C2-    C3-    O2-    C5
     3      7      5      4      9 ;     0.00   0.33472   2 ;     C3-    O2-    C5-    C4
     3      7      5      4      9 ;     0.00   3.13800   3 ;     C3-    O2-    C5-    C4
     3      7      5      4      9 ;   180.00   3.68192   1 ;     C3-    O2-    C5-    C4
     3      7      5     17      9 ;     0.00   1.41001   3 ;     C3-    O2-    C5-   H10
     3      7      5     18      9 ;     0.00   1.41001   3 ;     C3-    O2-    C5-   H11
     5      4      6     19      9 ;     0.00   0.25104   3 ;     C5-    C4-    O1-   H12
     5      7      3     13      9 ;     0.00   1.41001   3 ;     C5-    O2-    C3-    H6
     5      7      3     14      9 ;     0.00   1.41001   3 ;     C5-    O2-    C3-    H7
     6      4      5      7      9 ;     0.00   0.65084   3 ;     O1-    C4-    C5-    O2
     6      4      5     17      9 ;     0.00   0.00000   0 ;     O1-    C4-    C5-   H10
     6      4      5     17      9 ;     0.00   1.04600   1 ;     O1-    C4-    C5-   H10
     6      4      5     18      9 ;     0.00   0.00000   0 ;     O1-    C4-    C5-   H11
     6      4      5     18      9 ;     0.00   1.04600   1 ;     O1-    C4-    C5-   H11
     7      3      2     11      9 ;     0.00   0.00000   0 ;     O2-    C3-    C2-    H4
     7      3      2     11      9 ;     0.00   1.04600   1 ;     O2-    C3-    C2-    H4
     7      3      2     12      9 ;     0.00   0.00000   0 ;     O2-    C3-    C2-    H5
     7      3      2     12      9 ;     0.00   1.04600   1 ;     O2-    C3-    C2-    H5
     7      5      4     15      9 ;     0.00   0.00000   0 ;     O2-    C5-    C4-    H8
     7      5      4     15      9 ;     0.00   1.04600   1 ;     O2-    C5-    C4-    H8
     7      5      4     16      9 ;     0.00   0.00000   0 ;     O2-    C5-    C4-    H9
     7      5      4     16      9 ;     0.00   1.04600   1 ;     O2-    C5-    C4-    H9
     8      1      2      3      9 ;     0.00   0.54392   3 ;     H1-    C1-    C2-    C3
     8      1      2     11      9 ;     0.00   0.50208   3 ;     H1-    C1-    C2-    H4
     8      1      2     12      9 ;     0.00   0.50208   3 ;     H1-    C1-    C2-    H5
     9      1      2      3      9 ;     0.00   0.54392   3 ;     H2-    C1-    C2-    C3
     9      1      2     11      9 ;     0.00   0.50208   3 ;     H2-    C1-    C2-    H4
     9      1      2     12      9 ;     0.00   0.50208   3 ;     H2-    C1-    C2-    H5
    10      1      2      3      9 ;     0.00   0.54392   3 ;     H3-    C1-    C2-    C3
    10      1      2     11      9 ;     0.00   0.50208   3 ;     H3-    C1-    C2-    H4
    10      1      2     12      9 ;     0.00   0.50208   3 ;     H3-    C1-    C2-    H5
    11      2      3     13      9 ;     0.00   0.65084   3 ;     H4-    C2-    C3-    H6
    11      2      3     14      9 ;     0.00   0.65084   3 ;     H4-    C2-    C3-    H7
    12      2      3     13      9 ;     0.00   0.65084   3 ;     H5-    C2-    C3-    H6
    12      2      3     14      9 ;     0.00   0.65084   3 ;     H5-    C2-    C3-    H7
    15      4      5     17      9 ;     0.00   0.65084   3 ;     H8-    C4-    C5-   H10
    15      4      5     18      9 ;     0.00   0.65084   3 ;     H8-    C4-    C5-   H11
    15      4      6     19      9 ;     0.00   0.51463   3 ;     H8-    C4-    O1-   H12
    16      4      5     17      9 ;     0.00   0.65084   3 ;     H9-    C4-    C5-   H10
    16      4      5     18      9 ;     0.00   0.65084   3 ;     H9-    C4-    C5-   H11
    16      4      6     19      9 ;     0.00   0.51463   3 ;     H9-    C4-    O1-   H12
