mobley_4687447_GMX.gro created by acpype (v: 2023.10.27) on Wed May 20 23:55:06 2026
 19
    1  MOL   C1    1  -0.001  -0.066   0.088
    1  MOL   C2    2   0.124  -0.044   0.171
    1  MOL   C3    3   0.128  -0.135   0.293
    1  MOL   C4    4   0.385  -0.160   0.555
    1  MOL   C5    5   0.255  -0.191   0.482
    1  MOL   O1    6   0.494  -0.189   0.469
    1  MOL   O2    7   0.246  -0.109   0.366
    1  MOL   H1    8  -0.091  -0.044   0.146
    1  MOL   H2    9  -0.001   0.001   0.001
    1  MOL   H3   10  -0.007  -0.169   0.052
    1  MOL   H4   11   0.131   0.060   0.202
    1  MOL   H5   12   0.213  -0.063   0.109
    1  MOL   H6   13   0.042  -0.116   0.358
    1  MOL   H7   14   0.127  -0.240   0.263
    1  MOL   H8   15   0.395  -0.222   0.645
    1  MOL   H9   16   0.389  -0.054   0.582
    1  MOL  H10   17   0.168  -0.170   0.545
    1  MOL  H11   18   0.253  -0.296   0.450
    1  MOL  H12   19   0.551  -0.252   0.516
   12.83800     7.12000    12.88000
