mobley_1728386_GMX.gro created by acpype (v: 2023.10.27) on Wed May 20 23:53:41 2026
   16
    1MOL    H11    1   2.355   2.084   2.274
    1MOL     N1    2   2.355   2.137   2.191
    1MOL    H12    3   2.353   2.081   2.105
    1MOL     C1    4   2.352   2.271   2.181
    1MOL     O1    5   2.348   2.332   2.071
    1MOL     C2    6   2.357   2.348   2.308
    1MOL     C3    7   2.407   2.292   2.428
    1MOL    H31    8   2.446   2.193   2.435
    1MOL     C5    9   2.407   2.371   2.545
    1MOL    H51   10   2.446   2.329   2.635
    1MOL     C7   11   2.361   2.503   2.543
    1MOL     C6   12   2.314   2.558   2.425
    1MOL    H61   13   2.277   2.660   2.425
    1MOL     C4   14   2.312   2.483   2.307
    1MOL    H41   15   2.273   2.528   2.217
    1MOL    H71   16   2.362   2.562   2.635
   4.71578   4.71578   4.71578
