mobley_7497999_GMX.gro created by acpype (v: 2023.10.27) on Wed May 20 23:43:50 2026
10286
    1MOL     C1    1   2.394   2.343   2.114
    1MOL     C2    2   2.287   2.403   2.181
    1MOL     C3    3   2.499   2.287   2.186
    1MOL     C4    4   2.285   2.406   2.321
    1MOL     C5    5   2.497   2.290   2.326
    1MOL     C6    6   2.390   2.349   2.393
    1MOL     C7    7   2.388   2.352   2.538
    1MOL     C8    8   2.272   2.418   2.612
    1MOL     O1    9   2.481   2.303   2.606
    1MOL     H1   10   2.395   2.341   2.005
    1MOL     H2   11   2.205   2.447   2.125
    1MOL     H3   12   2.582   2.240   2.134
    1MOL     H4   13   2.201   2.453   2.372
    1MOL     H5   14   2.579   2.245   2.381
    1MOL     H6   15   2.179   2.365   2.589
    1MOL     H7   16   2.265   2.523   2.585
    1MOL     H8   17   2.288   2.412   2.721
    2SOL     OW   18   0.230   0.628   0.113
    2SOL    HW1   19   0.137   0.626   0.150
    2SOL    HW2   20   0.231   0.589   0.021
    3SOL     OW   21   0.225   0.275   0.996
    3SOL    HW1   22   0.260   0.258   1.088
    3SOL    HW2   23   0.137   0.230   0.984
    4SOL     OW   24   0.019   0.368   0.647
    4SOL    HW1   25  -0.063   0.411   0.686
    4SOL    HW2   26  -0.009   0.295   0.584
    5SOL     OW   27   0.569   1.275   1.165
    5SOL    HW1   28   0.476   1.268   1.128
    5SOL    HW2   29   0.580   1.364   1.209
    6SOL     OW   30   1.555   1.511   0.703
    6SOL    HW1   31   1.498   1.495   0.784
    6SOL    HW2   32   1.496   1.521   0.623
    7SOL     OW   33   1.135   0.703   0.717
    7SOL    HW1   34   1.192   0.781   0.692
    7SOL    HW2   35   1.075   0.729   0.793
    8SOL     OW   36   1.755   0.607   0.231
    8SOL    HW1   37   1.743   0.594   0.132
    8SOL    HW2   38   1.725   0.526   0.280
    9SOL     OW   39   0.768   1.144   1.023
    9SOL    HW1   40   0.690   1.161   1.083
    9SOL    HW2   41   0.802   1.231   0.987
   10SOL     OW   42   0.850   0.798   1.823
   10SOL    HW1   43   0.846   0.874   1.888
   10SOL    HW2   44   0.872   0.834   1.732
   11SOL     OW   45   0.685   1.012   0.665
   11SOL    HW1   46   0.754   0.996   0.735
   11SOL    HW2   47   0.612   1.069   0.703
   12SOL     OW   48   0.686   1.161   1.803
   12SOL    HW1   49   0.746   1.240   1.817
   12SOL    HW2   50   0.600   1.192   1.762
   13SOL     OW   51   0.335   1.435   1.061
   13SOL    HW1   52   0.257   1.404   1.008
   13SOL    HW2   53   0.393   1.493   1.004
   14SOL     OW   54   1.460   1.505   1.339
   14SOL    HW1   55   1.484   1.599   1.365
   14SOL    HW2   56   1.444   1.451   1.421
   15SOL     OW   57   0.438   0.392   1.499
   15SOL    HW1   58   0.520   0.336   1.508
   15SOL    HW2   59   0.357   0.334   1.503
   16SOL     OW   60   1.603   0.447   0.737
   16SOL    HW1   61   1.529   0.493   0.687
   16SOL    HW2   62   1.654   0.515   0.790
   17SOL     OW   63   0.231   1.713   0.483
   17SOL    HW1   64   0.265   1.790   0.537
   17SOL    HW2   65   0.275   1.713   0.393
   18SOL     OW   66   1.127   1.341   1.690
   18SOL    HW1   67   1.174   1.341   1.778
   18SOL    HW2   68   1.079   1.254   1.679
   19SOL     OW   69   0.230   1.434   0.538
   19SOL    HW1   70   0.204   1.530   0.538
   19SOL    HW2   71   0.159   1.380   0.583
   20SOL     OW   72   0.240   1.091   0.886
   20SOL    HW1   73   0.254   1.007   0.938
   20SOL    HW2   74   0.185   1.155   0.941
   21SOL     OW   75   0.620   1.786   1.439
   21SOL    HW1   76   0.528   1.769   1.474
   21SOL    HW2   77   0.648   1.878   1.465
   22SOL     OW   78   0.606   0.964   0.123
   22SOL    HW1   79   0.613   1.048   0.069
   22SOL    HW2   80   0.652   0.977   0.211
   23SOL     OW   81   1.594   0.114   1.480
   23SOL    HW1   82   1.576   0.181   1.408
   23SOL    HW2   83   1.591   0.160   1.569
   24SOL     OW   84   0.122   0.643   0.563
   24SOL    HW1   85   0.077   0.555   0.580
   24SOL    HW2   86   0.121   0.697   0.647
   25SOL     OW   87   1.842   1.767   0.359
   25SOL    HW1   88   1.896   1.738   0.439
   25SOL    HW2   89   1.872   1.857   0.330
   26SOL     OW   90   0.027   1.596   0.117
   26SOL    HW1   91   0.008   1.500   0.138
   26SOL    HW2   92  -0.006   1.654   0.192
   27SOL     OW   93   1.689   0.922   0.612
   27SOL    HW1   94   1.784   0.893   0.620
   27SOL    HW2   95   1.681   0.987   0.537
   28SOL     OW   96   1.641   1.108   0.432
   28SOL    HW1   97   1.727   1.110   0.380
   28SOL    HW2   98   1.655   1.155   0.520
   29SOL     OW   99   0.113   0.737   1.597
   29SOL    HW1  100   0.201   0.724   1.642
   29SOL    HW2  101   0.100   0.834   1.575
   30SOL     OW  102   0.613   1.365   0.726
   30SOL    HW1  103   0.564   1.278   0.735
   30SOL    HW2  104   0.590   1.408   0.639
   31SOL     OW  105   1.293   1.228   1.423
   31SOL    HW1  106   1.330   1.155   1.365
   31SOL    HW2  107   1.345   1.233   1.508
   32SOL     OW  108   0.809   0.004   0.502
   32SOL    HW1  109   0.849   0.095   0.493
   32SOL    HW2  110   0.709   0.012   0.508
   33SOL     OW  111   0.197   0.976   1.264
   33SOL    HW1  112   0.286   0.931   1.250
   33SOL    HW2  113   0.124   0.911   1.245
   34SOL     OW  114   1.525   0.999   0.190
   34SOL    HW1  115   1.462   0.923   0.203
   34SOL    HW2  116   1.573   1.017   0.276
   35SOL     OW  117   1.187   1.792   1.616
   35SOL    HW1  118   1.211   1.852   1.540
   35SOL    HW2  119   1.194   1.697   1.586
   36SOL     OW  120   0.317   0.251   1.801
   36SOL    HW1  121   0.388   0.322   1.807
   36SOL    HW2  122   0.229   0.290   1.829
   37SOL     OW  123   1.466   1.417   0.953
   37SOL    HW1  124   1.407   1.423   1.033
   37SOL    HW2  125   1.451   1.329   0.907
   38SOL     OW  126   1.667   1.714   0.572
   38SOL    HW1  127   1.626   1.691   0.484
   38SOL    HW2  128   1.649   1.640   0.637
   39SOL     OW  129   0.598   0.729   0.270
   39SOL    HW1  130   0.622   0.798   0.202
   39SOL    HW2  131   0.520   0.762   0.324
   40SOL     OW  132   1.281   0.345   0.944
   40SOL    HW1  133   1.195   0.295   0.931
   40SOL    HW2  134   1.343   0.291   1.000
   41SOL     OW  135   1.576   1.662   0.307
   41SOL    HW1  136   1.665   1.708   0.310
   41SOL    HW2  137   1.555   1.638   0.212
   42SOL     OW  138   0.807   0.605   1.465
   42SOL    HW1  139   0.760   0.602   1.554
   42SOL    HW2  140   0.756   0.550   1.399
   43SOL     OW  141   1.394   0.469   1.674
   43SOL    HW1  142   1.374   0.512   1.762
   43SOL    HW2  143   1.472   0.407   1.683
   44SOL     OW  144   0.973   0.890   1.572
   44SOL    HW1  145   1.019   0.806   1.543
   44SOL    HW2  146   0.917   0.924   1.497
   45SOL     OW  147   0.991   0.410   1.242
   45SOL    HW1  148   0.914   0.444   1.296
   45SOL    HW2  149   0.957   0.359   1.163
   46SOL     OW  150   1.041   0.701   0.429
   46SOL    HW1  151   1.067   0.697   0.525
   46SOL    HW2  152   0.956   0.650   0.415
   47SOL     OW  153   0.076   0.811   0.789
   47SOL    HW1  154   0.175   0.799   0.798
   47SOL    HW2  155   0.052   0.906   0.810
   48SOL     OW  156   0.130   1.821   1.571
   48SOL    HW1  157   0.120   1.806   1.670
   48SOL    HW2  158   0.044   1.857   1.535
   49SOL     OW  159   0.865   0.348   0.195
   49SOL    HW1  160   0.924   0.411   0.146
   49SOL    HW2  161   0.884   0.254   0.166
   50SOL     OW  162   1.719   0.585   1.831
   50SOL    HW1  163   1.693   0.674   1.795
   50SOL    HW2  164   1.717   0.517   1.758
   51SOL     OW  165   1.362   1.144   0.545
   51SOL    HW1  166   1.445   1.115   0.497
   51SOL    HW2  167   1.313   1.211   0.489
   52SOL     OW  168   0.550   0.196   0.885
   52SOL    HW1  169   0.545   0.191   0.985
   52SOL    HW2  170   0.552   0.292   0.856
   53SOL     OW  171   1.008   1.456   0.477
   53SOL    HW1  172   0.962   1.528   0.425
   53SOL    HW2  173   1.004   1.476   0.575
   54SOL     OW  174   0.351   1.801   0.853
   54SOL    HW1  175   0.401   1.715   0.859
   54SOL    HW2  176   0.416   1.878   0.850
   55SOL     OW  177   1.795   1.066   0.873
   55SOL    HW1  178   1.733   1.051   0.797
   55SOL    HW2  179   1.743   1.077   0.958
   56SOL     OW  180   1.227   1.550   1.506
   56SOL    HW1  181   1.233   1.473   1.570
   56SOL    HW2  182   1.175   1.524   1.426
   57SOL     OW  183   0.321   0.943   0.242
   57SOL    HW1  184   0.403   0.982   0.200
   57SOL    HW2  185   0.294   0.861   0.193
   58SOL     OW  186   1.458   0.735   0.728
   58SOL    HW1  187   1.453   0.670   0.803
   58SOL    HW2  188   1.538   0.794   0.741
   59SOL     OW  189   0.461   1.266   1.727
   59SOL    HW1  190   0.411   1.267   1.641
   59SOL    HW2  191   0.398   1.248   1.803
   60SOL     OW  192   1.111   1.776   0.237
   60SOL    HW1  193   1.051   1.714   0.287
   60SOL    HW2  194   1.142   1.732   0.152
   61SOL     OW  195   0.202   0.285   1.498
   61SOL    HW1  196   0.122   0.345   1.485
   61SOL    HW2  197   0.192   0.236   1.584
   62SOL     OW  198   1.632   1.377   0.081
   62SOL    HW1  199   1.600   1.471   0.071
   62SOL    HW2  200   1.556   1.314   0.069
   63SOL     OW  201   0.464   1.743   0.323
   63SOL    HW1  202   0.497   1.782   0.409
   63SOL    HW2  203   0.540   1.736   0.258
   64SOL     OW  204   1.400   0.107   0.426
   64SOL    HW1  205   1.376   0.070   0.336
   64SOL    HW2  206   1.499   0.123   0.430
   65SOL     OW  207   0.249   1.785   1.241
   65SOL    HW1  208   0.306   1.720   1.291
   65SOL    HW2  209   0.233   1.752   1.148
   66SOL     OW  210   0.940   1.698   0.904
   66SOL    HW1  211   1.020   1.641   0.925
   66SOL    HW2  212   0.891   1.658   0.827
   67SOL     OW  213   0.382   0.700   0.480
   67SOL    HW1  214   0.427   0.610   0.477
   67SOL    HW2  215   0.288   0.689   0.513
   68SOL     OW  216   1.547   0.222   1.729
   68SOL    HW1  217   1.542   0.259   1.821
   68SOL    HW2  218   1.475   0.153   1.717
   69SOL     OW  219   0.614   0.122   0.117
   69SOL    HW1  220   0.712   0.100   0.124
   69SOL    HW2  221   0.583   0.105   0.024
   70SOL     OW  222   0.781   0.264   1.749
   70SOL    HW1  223   0.848   0.203   1.792
   70SOL    HW2  224   0.708   0.283   1.814
   71SOL     OW  225   0.888   1.514   1.195
   71SOL    HW1  226   0.865   1.489   1.101
   71SOL    HW2  227   0.949   1.445   1.234
   72SOL     OW  228   1.351   0.590   1.433
   72SOL    HW1  229   1.379   0.547   1.518
   72SOL    HW2  230   1.376   0.686   1.434
   73SOL     OW  231   0.803   1.402   0.924
   73SOL    HW1  232   0.893   1.416   0.882
   73SOL    HW2  233   0.732   1.404   0.853
   74SOL     OW  234   0.922   0.503   0.899
   74SOL    HW1  235   0.897   0.494   0.803
   74SOL    HW2  236   0.970   0.421   0.930
   75SOL     OW  237   0.539   0.064   0.512
   75SOL    HW1  238   0.458   0.065   0.570
   75SOL    HW2  239   0.542   0.147   0.457
   76SOL     OW  240   1.434   1.188   0.041
   76SOL    HW1  241   1.466   1.112   0.098
   76SOL    HW2  242   1.342   1.215   0.071
   77SOL     OW  243   0.297   0.035   0.171
   77SOL    HW1  244   0.346   0.119   0.150
   77SOL    HW2  245   0.359  -0.030   0.216
   78SOL     OW  246   0.935   0.236   0.480
   78SOL    HW1  247   0.887   0.277   0.402
   78SOL    HW2  248   1.034   0.234   0.461
   79SOL     OW  249   1.076   0.683   1.464
   79SOL    HW1  250   0.996   0.622   1.467
   79SOL    HW2  251   1.157   0.630   1.440
   80SOL     OW  252   1.227   1.570   0.793
   80SOL    HW1  253   1.248   1.644   0.728
   80SOL    HW2  254   1.295   1.570   0.866
   81SOL     OW  255   0.459   1.152   0.741
   81SOL    HW1  256   0.388   1.125   0.806
   81SOL    HW2  257   0.433   1.124   0.648
   82SOL     OW  258   1.271   1.797   0.591
   82SOL    HW1  259   1.315   1.861   0.527
   82SOL    HW2  260   1.221   1.849   0.661
   83SOL     OW  261   1.032   0.549   0.016
   83SOL    HW1  262   0.991   0.631  -0.023
   83SOL    HW2  263   1.096   0.575   0.089
   84SOL     OW  264   0.078   0.556   1.386
   84SOL    HW1  265   0.170   0.555   1.345
   84SOL    HW2  266   0.072   0.630   1.453
   85SOL     OW  267   0.561   0.222   1.147
   85SOL    HW1  268   0.599   0.138   1.184
   85SOL    HW2  269   0.473   0.241   1.191
   86SOL     OW  270   0.866   0.454   0.642
   86SOL    HW1  271   0.834   0.526   0.580
   86SOL    HW2  272   0.890   0.373   0.589
   87SOL     OW  273   1.017   0.039   0.753
   87SOL    HW1  274   0.945   0.044   0.684
   87SOL    HW2  275   0.993  -0.030   0.822
   88SOL     OW  276   1.429   1.173   0.867
   88SOL    HW1  277   1.374   1.089   0.860
   88SOL    HW2  278   1.455   1.202   0.775
   89SOL     OW  279   1.466   0.590   0.992
   89SOL    HW1  280   1.436   0.495   0.999
   89SOL    HW2  281   1.539   0.606   1.058
   90SOL     OW  282   1.857   0.833   0.377
   90SOL    HW1  283   1.899   0.769   0.441
   90SOL    HW2  284   1.819   0.782   0.299
   91SOL     OW  285   0.488   1.385   0.174
   91SOL    HW1  286   0.401   1.370   0.221
   91SOL    HW2  287   0.471   1.411   0.079
   92SOL     OW  288   1.664   1.280   0.657
   92SOL    HW1  289   1.763   1.288   0.671
   92SOL    HW2  290   1.619   1.364   0.688
   93SOL     OW  291   1.390   0.575   0.078
   93SOL    HW1  292   1.336   0.554   0.159
   93SOL    HW2  293   1.481   0.534   0.087
   94SOL     OW  294   0.527   0.256   0.328
   94SOL    HW1  295   0.554   0.197   0.253
   94SOL    HW2  296   0.527   0.351   0.297
   95SOL     OW  297   1.754   1.223   1.588
   95SOL    HW1  298   1.845   1.184   1.575
   95SOL    HW2  299   1.762   1.319   1.612
   96SOL     OW  300   1.064   1.347   1.340
   96SOL    HW1  301   0.984   1.324   1.395
   96SOL    HW2  302   1.147   1.321   1.389
   97SOL     OW  303   1.592   1.629   1.625
   97SOL    HW1  304   1.619   1.663   1.535
   97SOL    HW2  305   1.671   1.591   1.671
   98SOL     OW  306   1.111   1.195   1.100
   98SOL    HW1  307   1.071   1.239   1.181
   98SOL    HW2  308   1.070   1.232   1.017
   99SOL     OW  309   1.638   1.099   1.079
   99SOL    HW1  310   1.643   1.180   1.138
   99SOL    HW2  311   1.552   1.101   1.028
  100SOL     OW  312   0.915   0.089   1.402
  100SOL    HW1  313   0.940   0.069   1.307
  100SOL    HW2  314   0.987   0.145   1.444
  101SOL     OW  315   0.980   1.116   1.719
  101SOL    HW1  316   0.881   1.122   1.729
  101SOL    HW2  317   1.003   1.036   1.663
  102SOL     OW  318   0.705   1.050   0.368
  102SOL    HW1  319   0.691   1.057   0.467
  102SOL    HW2  320   0.789   0.999   0.350
  103SOL     OW  321   0.410   0.813   1.251
  103SOL    HW1  322   0.496   0.825   1.301
  103SOL    HW2  323   0.368   0.726   1.278
  104SOL     OW  324   1.274   0.386   1.262
  104SOL    HW1  325   1.295   0.460   1.326
  104SOL    HW2  326   1.185   0.403   1.219
  105SOL     OW  327   0.064   1.564   1.331
  105SOL    HW1  328   0.018   1.646   1.297
  105SOL    HW2  329   0.162   1.583   1.340
  106SOL     OW  330   0.367   1.100   0.501
  106SOL    HW1  331   0.360   1.183   0.445
  106SOL    HW2  332   0.371   1.020   0.441
  107SOL     OW  333   0.566   0.537   0.865
  107SOL    HW1  334   0.578   0.603   0.791
  107SOL    HW2  335   0.612   0.571   0.948
  108SOL     OW  336   1.252   1.348   0.388
  108SOL    HW1  337   1.302   1.425   0.428
  108SOL    HW2  338   1.157   1.350   0.420
  109SOL     OW  339   1.272   1.445   1.142
  109SOL    HW1  340   1.319   1.458   1.229
  109SOL    HW2  341   1.206   1.371   1.151
  110SOL     OW  342   1.582   0.639   0.472
  110SOL    HW1  343   1.551   0.700   0.545
  110SOL    HW2  344   1.632   0.691   0.403
  111SOL     OW  345   0.354   1.510   1.329
  111SOL    HW1  346   0.333   1.466   1.242
  111SOL    HW2  347   0.451   1.536   1.332
  112SOL     OW  348   0.402   0.751   1.598
  112SOL    HW1  349   0.470   0.806   1.551
  112SOL    HW2  350   0.442   0.663   1.625
  113SOL     OW  351   1.587   0.779   1.670
  113SOL    HW1  352   1.495   0.817   1.665
  113SOL    HW2  353   1.647   0.826   1.605
  114SOL     OW  354   1.013   0.105   1.770
  114SOL    HW1  355   1.019   0.190   1.718
  114SOL    HW2  356   1.045   0.029   1.713
  115SOL     OW  357   0.504   0.050   1.740
  115SOL    HW1  358   0.462  -0.007   1.670
  115SOL    HW2  359   0.438   0.119   1.772
  116SOL     OW  360   0.573   0.870   1.029
  116SOL    HW1  361   0.617   0.959   1.020
  116SOL    HW2  362   0.510   0.870   1.106
  117SOL     OW  363   1.360   0.862   1.045
  117SOL    HW1  364   1.285   0.862   0.979
  117SOL    HW2  365   1.397   0.770   1.054
  118SOL     OW  366   1.209   0.525   0.275
  118SOL    HW1  367   1.222   0.441   0.329
  118SOL    HW2  368   1.180   0.599   0.335
  119SOL     OW  369   0.307   0.213   1.231
  119SOL    HW1  370   0.284   0.250   1.321
  119SOL    HW2  371   0.277   0.118   1.225
  120SOL     OW  372   0.037   1.310   1.282
  120SOL    HW1  373   0.090   1.261   1.350
  120SOL    HW2  374   0.059   1.408   1.287
  121SOL     OW  375   0.732   0.634   1.064
  121SOL    HW1  376   0.791   0.608   0.988
  121SOL    HW2  377   0.704   0.730   1.053
  122SOL     OW  378   1.728   0.935   1.854
  122SOL    HW1  379   1.682   0.928   1.765
  122SOL    HW2  380   1.666   0.979   1.920
  123SOL     OW  381   0.307   0.063   0.618
  123SOL    HW1  382   0.296   0.157   0.651
  123SOL    HW2  383   0.302   0.000   0.695
  124SOL     OW  384   1.622   0.367   0.374
  124SOL    HW1  385   1.624   0.291   0.438
  124SOL    HW2  386   1.574   0.444   0.414
  125SOL     OW  387   1.023   0.766   0.966
  125SOL    HW1  388   1.038   0.787   1.062
  125SOL    HW2  389   0.993   0.671   0.957
  126SOL     OW  390   0.980   1.573   1.700
  126SOL    HW1  391   0.960   1.617   1.612
  126SOL    HW2  392   1.019   1.482   1.684
  127SOL     OW  393   1.859   1.518   1.605
  127SOL    HW1  394   1.873   1.545   1.510
  127SOL    HW2  395   1.942   1.540   1.658
  128SOL     OW  396   0.350   0.898   1.804
  128SOL    HW1  397   0.426   0.942   1.852
  128SOL    HW2  398   0.385   0.851   1.722
  129SOL     OW  399   1.540   0.274   0.125
  129SOL    HW1  400   1.479   0.199   0.148
  129SOL    HW2  401   1.562   0.326   0.208
  130SOL     OW  402   1.303   0.838   0.042
  130SOL    HW1  403   1.337   0.745   0.057
  130SOL    HW2  404   1.321   0.865  -0.053
  131SOL     OW  405   1.068   1.333   0.849
  131SOL    HW1  406   1.075   1.249   0.794
  131SOL    HW2  407   1.130   1.402   0.813
  132SOL     OW  408   0.319   0.810   0.949
  132SOL    HW1  409   0.412   0.846   0.954
  132SOL    HW2  410   0.313   0.725   1.001
  133SOL     OW  411   0.339   0.509   1.006
  133SOL    HW1  412   0.287   0.426   0.989
  133SOL    HW2  413   0.416   0.514   0.942
  134SOL     OW  414   1.138   0.380   1.678
  134SOL    HW1  415   1.093   0.443   1.742
  134SOL    HW2  416   1.231   0.411   1.661
  135SOL     OW  417   1.160   0.207   1.477
  135SOL    HW1  418   1.160   0.271   1.554
  135SOL    HW2  419   1.188   0.255   1.394
  136SOL     OW  420   0.008   1.326   0.200
  136SOL    HW1  421  -0.085   1.347   0.169
  136SOL    HW2  422   0.018   1.227   0.213
  137SOL     OW  423   0.088   1.801   0.927
  137SOL    HW1  424   0.046   1.715   0.900
  137SOL    HW2  425   0.182   1.804   0.893
  138SOL     OW  426   0.504   1.568   0.910
  138SOL    HW1  427   0.570   1.642   0.919
  138SOL    HW2  428   0.548   1.489   0.868
  139SOL     OW  429   1.002   0.796   1.238
  139SOL    HW1  430   1.043   0.764   1.324
  139SOL    HW2  431   0.906   0.769   1.235
  140SOL     OW  432   0.040   0.544   1.114
  140SOL    HW1  433   0.125   0.511   1.073
  140SOL    HW2  434   0.053   0.559   1.212
  141SOL     OW  435   0.189   0.520   1.722
  141SOL    HW1  436   0.248   0.480   1.652
  141SOL    HW2  437   0.131   0.591   1.681
  142SOL     OW  438   1.369   0.950   1.660
  142SOL    HW1  439   1.408   1.039   1.680
  142SOL    HW2  440   1.379   0.930   1.563
  143SOL     OW  441   0.815   0.572   0.325
  143SOL    HW1  442   0.822   0.483   0.279
  143SOL    HW2  443   0.721   0.606   0.317
  144SOL     OW  444   1.657   0.604   1.206
  144SOL    HW1  445   1.619   0.535   1.268
  144SOL    HW2  446   1.739   0.568   1.162
  145SOL     OW  447   0.252   1.564   1.744
  145SOL    HW1  448   0.222   1.621   1.820
  145SOL    HW2  449   0.245   1.467   1.770
  146SOL     OW  450   0.671   0.464   1.269
  146SOL    HW1  451   0.637   0.375   1.239
  146SOL    HW2  452   0.697   0.518   1.189
  147SOL     OW  453   0.930   1.678   1.465
  147SOL    HW1  454   0.906   1.660   1.370
  147SOL    HW2  455   0.960   1.772   1.475
  148SOL     OW  456   0.473   0.500   0.191
  148SOL    HW1  457   0.534   0.580   0.195
  148SOL    HW2  458   0.378   0.531   0.198
  149SOL     OW  459   0.159   1.137   1.466
  149SOL    HW1  460   0.181   1.076   1.542
  149SOL    HW2  461   0.169   1.088   1.380
  150SOL     OW  462   1.347   1.059   1.234
  150SOL    HW1  463   1.371   0.996   1.160
  150SOL    HW2  464   1.257   1.099   1.216
  151SOL     OW  465   1.302   0.855   0.309
  151SOL    HW1  466   1.216   0.824   0.351
  151SOL    HW2  467   1.298   0.841   0.210
  152SOL     OW  468   1.759   1.747   1.154
  152SOL    HW1  469   1.820   1.777   1.081
  152SOL    HW2  470   1.721   1.658   1.132
  153SOL     OW  471   1.252   1.731   1.128
  153SOL    HW1  472   1.336   1.736   1.074
  153SOL    HW2  473   1.229   1.635   1.146
  154SOL     OW  474   0.083   1.258   1.022
  154SOL    HW1  475   0.078   1.257   1.122
  154SOL    HW2  476   0.000   1.217   0.984
  155SOL     OW  477   0.688   1.662   1.716
  155SOL    HW1  478   0.632   1.743   1.725
  155SOL    HW2  479   0.740   1.666   1.630
  156SOL     OW  480   0.903   0.086   0.133
  156SOL    HW1  481   0.954   0.087   0.047
  156SOL    HW2  482   0.959   0.044   0.204
  157SOL     OW  483   1.726   0.135   0.523
  157SOL    HW1  484   1.799   0.118   0.456
  157SOL    HW2  485   1.695   0.048   0.561
  158SOL     OW  486   1.388   1.573   0.477
  158SOL    HW1  487   1.455   1.585   0.403
  158SOL    HW2  488   1.348   1.662   0.500
  159SOL     OW  489   0.130   1.794   1.851
  159SOL    HW1  490   0.089   1.720   1.904
  159SOL    HW2  491   0.194   1.845   1.909
  160SOL     OW  492   1.280   0.927   0.672
  160SOL    HW1  493   1.340   0.846   0.674
  160SOL    HW2  494   1.320   0.996   0.612
  161SOL     OW  495   0.830   1.273   1.422
  161SOL    HW1  496   0.825   1.306   1.517
  161SOL    HW2  497   0.744   1.292   1.376
  162SOL     OW  498   0.672   1.616   0.154
  162SOL    HW1  499   0.681   1.626   0.055
  162SOL    HW2  500   0.632   1.527   0.175
  163SOL     OW  501   1.650   1.720   1.394
  163SOL    HW1  502   1.703   1.730   1.310
  163SOL    HW2  503   1.623   1.810   1.428
  164SOL     OW  504   1.841   0.175   0.963
  164SOL    HW1  505   1.880   0.090   0.927
  164SOL    HW2  506   1.743   0.177   0.944
  165SOL     OW  507   0.263   0.326   0.720
  165SOL    HW1  508   0.184   0.377   0.686
  165SOL    HW2  509   0.254   0.311   0.818
  166SOL     OW  510   1.194   1.612   0.031
  166SOL    HW1  511   1.200   1.519   0.068
  166SOL    HW2  512   1.135   1.612  -0.049
  167SOL     OW  513   0.822   1.002   1.372
  167SOL    HW1  514   0.862   1.001   1.280
  167SOL    HW2  515   0.832   1.094   1.412
  168SOL     OW  516   0.916   0.910   0.291
  168SOL    HW1  517   0.979   0.948   0.223
  168SOL    HW2  518   0.956   0.827   0.330
  169SOL     OW  519   1.504   1.607   0.044
  169SOL    HW1  520   1.412   1.644   0.051
  169SOL    HW2  521   1.542   1.627  -0.046
  170SOL     OW  522   0.372   1.288   1.490
  170SOL    HW1  523   0.359   1.381   1.456
  170SOL    HW2  524   0.288   1.236   1.477
  171SOL     OW  525   1.614   1.292   1.289
  171SOL    HW1  526   1.674   1.295   1.369
  171SOL    HW2  527   1.539   1.356   1.302
  172SOL     OW  528   1.039   1.098   0.696
  172SOL    HW1  529   0.969   1.051   0.750
  172SOL    HW2  530   1.098   1.030   0.653
  173SOL     OW  531   1.014   0.236   0.971
  173SOL    HW1  532   1.006   0.200   0.878
  173SOL    HW2  533   1.012   0.160   1.036
  174SOL     OW  534   0.590   1.487   0.491
  174SOL    HW1  535   0.632   1.429   0.421
  174SOL    HW2  536   0.546   1.566   0.447
  175SOL     OW  537   1.709   0.385   1.381
  175SOL    HW1  538   1.782   0.454   1.385
  175SOL    HW2  539   1.737   0.310   1.322
  176SOL     OW  540   0.255   1.348   0.290
  176SOL    HW1  541   0.159   1.349   0.263
  176SOL    HW2  542   0.267   1.401   0.374
  177SOL     OW  543   0.105   1.013   1.726
  177SOL    HW1  544   0.028   0.980   1.780
  177SOL    HW2  545   0.190   0.983   1.768
  178SOL     OW  546   0.672   0.203   1.489
  178SOL    HW1  547   0.762   0.187   1.449
  178SOL    HW2  548   0.680   0.208   1.588
  179SOL     OW  549   0.075   0.345   0.033
  179SOL    HW1  550  -0.017   0.317   0.004
  179SOL    HW2  551   0.106   0.422  -0.023
  180SOL     OW  552   1.440   0.856   1.398
  180SOL    HW1  553   1.383   0.908   1.335
  180SOL    HW2  554   1.536   0.868   1.374
  181SOL     OW  555   0.072   0.166   0.318
  181SOL    HW1  556   0.055   0.249   0.264
  181SOL    HW2  557   0.162   0.129   0.296
  182SOL     OW  558   1.183   1.335   0.119
  182SOL    HW1  559   1.084   1.324   0.121
  182SOL    HW2  560   1.217   1.350   0.212
  183SOL     OW  561   0.613   0.842   1.431
  183SOL    HW1  562   0.669   0.923   1.414
  183SOL    HW2  563   0.672   0.762   1.434
  184SOL     OW  564   1.493   1.767   0.959
  184SOL    HW1  565   1.526   1.831   0.890
  184SOL    HW2  566   1.559   1.761   1.034
  185SOL     OW  567   0.716   0.565   1.708
  185SOL    HW1  568   0.735   0.630   1.782
  185SOL    HW2  569   0.776   0.485   1.717
  186SOL     OW  570   1.450   1.220   1.633
  186SOL    HW1  571   1.441   1.210   1.732
  186SOL    HW2  572   1.546   1.213   1.607
  187SOL     OW  573   0.390   1.741   1.560
  187SOL    HW1  574   0.299   1.782   1.558
  187SOL    HW2  575   0.383   1.647   1.592
  188SOL     OW  576   1.674   0.883   1.254
  188SOL    HW1  577   1.647   0.794   1.217
  188SOL    HW2  578   1.675   0.951   1.181
  189SOL     OW  579   1.225   0.325   0.449
  189SOL    HW1  580   1.290   0.251   0.438
  189SOL    HW2  581   1.245   0.375   0.533
  190SOL     OW  582   0.594   0.745   0.652
  190SOL    HW1  583   0.644   0.830   0.633
  190SOL    HW2  584   0.506   0.747   0.604
  191SOL     OW  585   1.777   0.342   1.642
  191SOL    HW1  586   1.760   0.373   1.548
  191SOL    HW2  587   1.693   0.305   1.680
  192SOL     OW  588   1.730   0.934   1.517
  192SOL    HW1  589   1.768   1.025   1.532
  192SOL    HW2  590   1.722   0.917   1.418
  193SOL     OW  591   0.859   1.374   0.016
  193SOL    HW1  592   0.813   1.389   0.104
  193SOL    HW2  593   0.903   1.459  -0.014
  194SOL     OW  594   0.661   1.790   0.953
  194SOL    HW1  595   0.615   1.878   0.940
  194SOL    HW2  596   0.760   1.802   0.946
  195SOL     OW  597   0.859   0.956   0.861
  195SOL    HW1  598   0.913   0.887   0.909
  195SOL    HW2  599   0.827   1.025   0.927
  196SOL     OW  600   1.083   0.984   0.087
  196SOL    HW1  601   1.060   1.037   0.005
  196SOL    HW2  602   1.164   0.928   0.068
  197SOL     OW  603   1.861   1.569   0.851
  197SOL    HW1  604   1.790   1.557   0.781
  197SOL    HW2  605   1.862   1.490   0.911
  198SOL     OW  606   0.221   1.314   1.844
  198SOL    HW1  607   0.156   1.241   1.823
  198SOL    HW2  608   0.225   1.328   1.942
  199SOL     OW  609   0.079   1.240   0.653
  199SOL    HW1  610   0.078   1.193   0.741
  199SOL    HW2  611   0.161   1.212   0.602
  200SOL     OW  612   0.672   1.391   1.624
  200SOL    HW1  613   0.594   1.341   1.662
  200SOL    HW2  614   0.669   1.486   1.655
  201SOL     OW  615   1.824   0.192   1.227
  201SOL    HW1  616   1.820   0.102   1.271
  201SOL    HW2  617   1.827   0.181   1.128
  202SOL     OW  618   0.428   0.424   0.520
  202SOL    HW1  619   0.458   0.352   0.458
  202SOL    HW2  620   0.389   0.384   0.603
  203SOL     OW  621   1.705   1.487   1.104
  203SOL    HW1  622   1.612   1.462   1.077
  203SOL    HW2  623   1.731   1.437   1.186
  204SOL     OW  624   0.317   0.547   1.280
  204SOL    HW1  625   0.355   0.488   1.352
  204SOL    HW2  626   0.357   0.521   1.192
  205SOL     OW  627   0.812   1.586   0.687
  205SOL    HW1  628   0.844   1.596   0.593
  205SOL    HW2  629   0.733   1.524   0.689
  206SOL     OW  630   1.424   0.214   1.112
  206SOL    HW1  631   1.476   0.149   1.167
  206SOL    HW2  632   1.375   0.277   1.173
  207SOL     OW  633   1.001   0.034   1.154
  207SOL    HW1  634   0.938  -0.038   1.123
  207SOL    HW2  635   1.094  -0.002   1.154
  208SOL     OW  636   0.770   1.330   0.301
  208SOL    HW1  637   0.724   1.243   0.318
  208SOL    HW2  638   0.861   1.327   0.342
  209SOL     OW  639   0.618   1.567   1.284
  209SOL    HW1  640   0.613   1.649   1.341
  209SOL    HW2  641   0.707   1.564   1.239
  210SOL     OW  642   1.352   0.052   0.168
  210SOL    HW1  643   1.387   0.011   0.084
  210SOL    HW2  644   1.262   0.014   0.188
  211SOL     OW  645   1.300   0.453   0.691
  211SOL    HW1  646   1.241   0.533   0.695
  211SOL    HW2  647   1.315   0.418   0.784
  212SOL     OW  648   1.593   0.221   0.882
  212SOL    HW1  649   1.509   0.220   0.936
  212SOL    HW2  650   1.595   0.304   0.826
  213SOL     OW  651   0.039   1.077   0.300
  213SOL    HW1  652   0.138   1.066   0.291
  213SOL    HW2  653  -0.001   0.991   0.332
  214SOL     OW  654   0.875   1.646   0.337
  214SOL    HW1  655   0.798   1.611   0.283
  214SOL    HW2  656   0.843   1.717   0.399
  215SOL     OW  657   0.230   0.628   1.975
  215SOL    HW1  658   0.137   0.626   2.012
  215SOL    HW2  659   0.231   0.589   1.883
  216SOL     OW  660   0.225   0.275   2.858
  216SOL    HW1  661   0.260   0.258   2.950
  216SOL    HW2  662   0.137   0.230   2.846
  217SOL     OW  663   0.019   0.368   2.509
  217SOL    HW1  664  -0.063   0.411   2.548
  217SOL    HW2  665  -0.009   0.295   2.446
  218SOL     OW  666   0.569   1.275   3.027
  218SOL    HW1  667   0.476   1.268   2.990
  218SOL    HW2  668   0.580   1.364   3.071
  219SOL     OW  669   1.555   1.511   2.565
  219SOL    HW1  670   1.498   1.495   2.646
  219SOL    HW2  671   1.496   1.521   2.485
  220SOL     OW  672   1.135   0.703   2.579
  220SOL    HW1  673   1.192   0.781   2.554
  220SOL    HW2  674   1.075   0.729   2.655
  221SOL     OW  675   1.755   0.607   2.093
  221SOL    HW1  676   1.743   0.594   1.994
  221SOL    HW2  677   1.725   0.526   2.142
  222SOL     OW  678   0.768   1.144   2.885
  222SOL    HW1  679   0.690   1.161   2.945
  222SOL    HW2  680   0.802   1.231   2.849
  223SOL     OW  681   0.850   0.798   3.685
  223SOL    HW1  682   0.846   0.874   3.750
  223SOL    HW2  683   0.872   0.834   3.594
  224SOL     OW  684   0.685   1.012   2.527
  224SOL    HW1  685   0.754   0.996   2.597
  224SOL    HW2  686   0.612   1.069   2.565
  225SOL     OW  687   0.686   1.161   3.665
  225SOL    HW1  688   0.746   1.240   3.679
  225SOL    HW2  689   0.600   1.192   3.624
  226SOL     OW  690   0.335   1.435   2.923
  226SOL    HW1  691   0.257   1.404   2.870
  226SOL    HW2  692   0.393   1.493   2.866
  227SOL     OW  693   1.460   1.505   3.201
  227SOL    HW1  694   1.484   1.599   3.227
  227SOL    HW2  695   1.444   1.451   3.283
  228SOL     OW  696   0.438   0.392   3.361
  228SOL    HW1  697   0.520   0.336   3.370
  228SOL    HW2  698   0.357   0.334   3.365
  229SOL     OW  699   1.603   0.447   2.599
  229SOL    HW1  700   1.529   0.493   2.549
  229SOL    HW2  701   1.654   0.515   2.652
  230SOL     OW  702   0.231   1.713   2.345
  230SOL    HW1  703   0.265   1.790   2.399
  230SOL    HW2  704   0.275   1.713   2.255
  231SOL     OW  705   1.127   1.341   3.552
  231SOL    HW1  706   1.174   1.341   3.640
  231SOL    HW2  707   1.079   1.254   3.541
  232SOL     OW  708   0.230   1.434   2.400
  232SOL    HW1  709   0.204   1.530   2.400
  232SOL    HW2  710   0.159   1.380   2.445
  233SOL     OW  711   0.240   1.091   2.748
  233SOL    HW1  712   0.254   1.007   2.800
  233SOL    HW2  713   0.185   1.155   2.803
  234SOL     OW  714   0.620   1.786   3.301
  234SOL    HW1  715   0.528   1.769   3.336
  234SOL    HW2  716   0.648   1.878   3.327
  235SOL     OW  717   0.606   0.964   1.985
  235SOL    HW1  718   0.613   1.048   1.931
  235SOL    HW2  719   0.652   0.977   2.073
  236SOL     OW  720   1.594   0.114   3.342
  236SOL    HW1  721   1.576   0.181   3.270
  236SOL    HW2  722   1.591   0.160   3.431
  237SOL     OW  723   0.122   0.643   2.425
  237SOL    HW1  724   0.077   0.555   2.442
  237SOL    HW2  725   0.121   0.697   2.509
  238SOL     OW  726   1.842   1.767   2.221
  238SOL    HW1  727   1.896   1.738   2.301
  238SOL    HW2  728   1.872   1.857   2.192
  239SOL     OW  729   0.027   1.596   1.979
  239SOL    HW1  730   0.008   1.500   2.000
  239SOL    HW2  731  -0.006   1.654   2.054
  240SOL     OW  732   1.689   0.922   2.474
  240SOL    HW1  733   1.784   0.893   2.482
  240SOL    HW2  734   1.681   0.987   2.399
  241SOL     OW  735   1.641   1.108   2.294
  241SOL    HW1  736   1.727   1.110   2.242
  241SOL    HW2  737   1.655   1.155   2.382
  242SOL     OW  738   0.113   0.737   3.459
  242SOL    HW1  739   0.201   0.724   3.504
  242SOL    HW2  740   0.100   0.834   3.437
  243SOL     OW  741   0.613   1.365   2.588
  243SOL    HW1  742   0.564   1.278   2.597
  243SOL    HW2  743   0.590   1.408   2.501
  244SOL     OW  744   1.293   1.228   3.285
  244SOL    HW1  745   1.330   1.155   3.227
  244SOL    HW2  746   1.345   1.233   3.370
  245SOL     OW  747   0.809   0.004   2.364
  245SOL    HW1  748   0.849   0.095   2.355
  245SOL    HW2  749   0.709   0.012   2.370
  246SOL     OW  750   0.197   0.976   3.126
  246SOL    HW1  751   0.286   0.931   3.112
  246SOL    HW2  752   0.124   0.911   3.107
  247SOL     OW  753   1.525   0.999   2.052
  247SOL    HW1  754   1.462   0.923   2.065
  247SOL    HW2  755   1.573   1.017   2.138
  248SOL     OW  756   1.187   1.792   3.478
  248SOL    HW1  757   1.211   1.852   3.402
  248SOL    HW2  758   1.194   1.697   3.448
  249SOL     OW  759   0.317   0.251   3.663
  249SOL    HW1  760   0.388   0.322   3.669
  249SOL    HW2  761   0.229   0.290   3.691
  250SOL     OW  762   1.466   1.417   2.815
  250SOL    HW1  763   1.407   1.423   2.895
  250SOL    HW2  764   1.451   1.329   2.769
  251SOL     OW  765   1.667   1.714   2.434
  251SOL    HW1  766   1.626   1.691   2.346
  251SOL    HW2  767   1.649   1.640   2.499
  252SOL     OW  768   0.598   0.729   2.132
  252SOL    HW1  769   0.622   0.798   2.064
  252SOL    HW2  770   0.520   0.762   2.186
  253SOL     OW  771   1.281   0.345   2.806
  253SOL    HW1  772   1.195   0.295   2.793
  253SOL    HW2  773   1.343   0.291   2.862
  254SOL     OW  774   1.576   1.662   2.169
  254SOL    HW1  775   1.665   1.708   2.172
  254SOL    HW2  776   1.555   1.638   2.074
  255SOL     OW  777   0.807   0.605   3.327
  255SOL    HW1  778   0.760   0.602   3.416
  255SOL    HW2  779   0.756   0.550   3.261
  256SOL     OW  780   1.394   0.469   3.536
  256SOL    HW1  781   1.374   0.512   3.624
  256SOL    HW2  782   1.472   0.407   3.545
  257SOL     OW  783   0.973   0.890   3.434
  257SOL    HW1  784   1.019   0.806   3.405
  257SOL    HW2  785   0.917   0.924   3.359
  258SOL     OW  786   0.991   0.410   3.104
  258SOL    HW1  787   0.914   0.444   3.158
  258SOL    HW2  788   0.957   0.359   3.025
  259SOL     OW  789   1.041   0.701   2.291
  259SOL    HW1  790   1.067   0.697   2.387
  259SOL    HW2  791   0.956   0.650   2.277
  260SOL     OW  792   0.076   0.811   2.651
  260SOL    HW1  793   0.175   0.799   2.660
  260SOL    HW2  794   0.052   0.906   2.672
  261SOL     OW  795   0.130   1.821   3.433
  261SOL    HW1  796   0.120   1.806   3.532
  261SOL    HW2  797   0.044   1.857   3.397
  262SOL     OW  798   0.865   0.348   2.057
  262SOL    HW1  799   0.924   0.411   2.008
  262SOL    HW2  800   0.884   0.254   2.028
  263SOL     OW  801   1.719   0.585   3.693
  263SOL    HW1  802   1.693   0.674   3.657
  263SOL    HW2  803   1.717   0.517   3.620
  264SOL     OW  804   1.362   1.144   2.407
  264SOL    HW1  805   1.445   1.115   2.359
  264SOL    HW2  806   1.313   1.211   2.351
  265SOL     OW  807   0.550   0.196   2.747
  265SOL    HW1  808   0.545   0.191   2.847
  265SOL    HW2  809   0.552   0.292   2.718
  266SOL     OW  810   1.008   1.456   2.339
  266SOL    HW1  811   0.962   1.528   2.287
  266SOL    HW2  812   1.004   1.476   2.437
  267SOL     OW  813   0.351   1.801   2.715
  267SOL    HW1  814   0.401   1.715   2.721
  267SOL    HW2  815   0.416   1.878   2.712
  268SOL     OW  816   1.795   1.066   2.735
  268SOL    HW1  817   1.733   1.051   2.659
  268SOL    HW2  818   1.743   1.077   2.820
  269SOL     OW  819   1.227   1.550   3.368
  269SOL    HW1  820   1.233   1.473   3.432
  269SOL    HW2  821   1.175   1.524   3.288
  270SOL     OW  822   0.321   0.943   2.104
  270SOL    HW1  823   0.403   0.982   2.062
  270SOL    HW2  824   0.294   0.861   2.055
  271SOL     OW  825   1.458   0.735   2.590
  271SOL    HW1  826   1.453   0.670   2.665
  271SOL    HW2  827   1.538   0.794   2.603
  272SOL     OW  828   0.461   1.266   3.589
  272SOL    HW1  829   0.411   1.267   3.503
  272SOL    HW2  830   0.398   1.248   3.665
  273SOL     OW  831   1.111   1.776   2.099
  273SOL    HW1  832   1.051   1.714   2.149
  273SOL    HW2  833   1.142   1.732   2.014
  274SOL     OW  834   0.202   0.285   3.360
  274SOL    HW1  835   0.122   0.345   3.347
  274SOL    HW2  836   0.192   0.236   3.446
  275SOL     OW  837   1.632   1.377   1.943
  275SOL    HW1  838   1.600   1.471   1.933
  275SOL    HW2  839   1.556   1.314   1.931
  276SOL     OW  840   0.464   1.743   2.185
  276SOL    HW1  841   0.497   1.782   2.271
  276SOL    HW2  842   0.540   1.736   2.120
  277SOL     OW  843   1.400   0.107   2.288
  277SOL    HW1  844   1.376   0.070   2.198
  277SOL    HW2  845   1.499   0.123   2.292
  278SOL     OW  846   0.249   1.785   3.103
  278SOL    HW1  847   0.306   1.720   3.153
  278SOL    HW2  848   0.233   1.752   3.010
  279SOL     OW  849   0.940   1.698   2.766
  279SOL    HW1  850   1.020   1.641   2.787
  279SOL    HW2  851   0.891   1.658   2.689
  280SOL     OW  852   0.382   0.700   2.342
  280SOL    HW1  853   0.427   0.610   2.339
  280SOL    HW2  854   0.288   0.689   2.375
  281SOL     OW  855   1.547   0.222   3.591
  281SOL    HW1  856   1.542   0.259   3.683
  281SOL    HW2  857   1.475   0.153   3.579
  282SOL     OW  858   0.614   0.122   1.979
  282SOL    HW1  859   0.712   0.100   1.986
  282SOL    HW2  860   0.583   0.105   1.886
  283SOL     OW  861   0.781   0.264   3.611
  283SOL    HW1  862   0.848   0.203   3.654
  283SOL    HW2  863   0.708   0.283   3.676
  284SOL     OW  864   0.888   1.514   3.057
  284SOL    HW1  865   0.865   1.489   2.963
  284SOL    HW2  866   0.949   1.445   3.096
  285SOL     OW  867   1.351   0.590   3.295
  285SOL    HW1  868   1.379   0.547   3.380
  285SOL    HW2  869   1.376   0.686   3.296
  286SOL     OW  870   0.803   1.402   2.786
  286SOL    HW1  871   0.893   1.416   2.744
  286SOL    HW2  872   0.732   1.404   2.715
  287SOL     OW  873   0.922   0.503   2.761
  287SOL    HW1  874   0.897   0.494   2.665
  287SOL    HW2  875   0.970   0.421   2.792
  288SOL     OW  876   0.539   0.064   2.374
  288SOL    HW1  877   0.458   0.065   2.432
  288SOL    HW2  878   0.542   0.147   2.319
  289SOL     OW  879   1.434   1.188   1.903
  289SOL    HW1  880   1.466   1.112   1.960
  289SOL    HW2  881   1.342   1.215   1.933
  290SOL     OW  882   0.297   0.035   2.033
  290SOL    HW1  883   0.346   0.119   2.012
  290SOL    HW2  884   0.359  -0.030   2.078
  291SOL     OW  885   0.935   0.236   2.342
  291SOL    HW1  886   0.887   0.277   2.264
  291SOL    HW2  887   1.034   0.234   2.323
  292SOL     OW  888   1.076   0.683   3.326
  292SOL    HW1  889   0.996   0.622   3.329
  292SOL    HW2  890   1.157   0.630   3.302
  293SOL     OW  891   1.227   1.570   2.655
  293SOL    HW1  892   1.248   1.644   2.590
  293SOL    HW2  893   1.295   1.570   2.728
  294SOL     OW  894   0.459   1.152   2.603
  294SOL    HW1  895   0.388   1.125   2.668
  294SOL    HW2  896   0.433   1.124   2.510
  295SOL     OW  897   1.271   1.797   2.453
  295SOL    HW1  898   1.315   1.861   2.389
  295SOL    HW2  899   1.221   1.849   2.523
  296SOL     OW  900   1.032   0.549   1.878
  296SOL    HW1  901   0.991   0.631   1.839
  296SOL    HW2  902   1.096   0.575   1.951
  297SOL     OW  903   0.078   0.556   3.248
  297SOL    HW1  904   0.170   0.555   3.207
  297SOL    HW2  905   0.072   0.630   3.315
  298SOL     OW  906   0.561   0.222   3.009
  298SOL    HW1  907   0.599   0.138   3.046
  298SOL    HW2  908   0.473   0.241   3.053
  299SOL     OW  909   0.866   0.454   2.504
  299SOL    HW1  910   0.834   0.526   2.442
  299SOL    HW2  911   0.890   0.373   2.451
  300SOL     OW  912   1.017   0.039   2.615
  300SOL    HW1  913   0.945   0.044   2.546
  300SOL    HW2  914   0.993  -0.030   2.684
  301SOL     OW  915   1.429   1.173   2.729
  301SOL    HW1  916   1.374   1.089   2.722
  301SOL    HW2  917   1.455   1.202   2.637
  302SOL     OW  918   1.466   0.590   2.854
  302SOL    HW1  919   1.436   0.495   2.861
  302SOL    HW2  920   1.539   0.606   2.920
  303SOL     OW  921   1.857   0.833   2.239
  303SOL    HW1  922   1.899   0.769   2.303
  303SOL    HW2  923   1.819   0.782   2.161
  304SOL     OW  924   0.488   1.385   2.036
  304SOL    HW1  925   0.401   1.370   2.083
  304SOL    HW2  926   0.471   1.411   1.941
  305SOL     OW  927   1.664   1.280   2.519
  305SOL    HW1  928   1.763   1.288   2.533
  305SOL    HW2  929   1.619   1.364   2.550
  306SOL     OW  930   1.390   0.575   1.940
  306SOL    HW1  931   1.336   0.554   2.021
  306SOL    HW2  932   1.481   0.534   1.949
  307SOL     OW  933   0.527   0.256   2.190
  307SOL    HW1  934   0.554   0.197   2.115
  307SOL    HW2  935   0.527   0.351   2.159
  308SOL     OW  936   1.754   1.223   3.450
  308SOL    HW1  937   1.845   1.184   3.437
  308SOL    HW2  938   1.762   1.319   3.474
  309SOL     OW  939   1.064   1.347   3.202
  309SOL    HW1  940   0.984   1.324   3.257
  309SOL    HW2  941   1.147   1.321   3.251
  310SOL     OW  942   1.592   1.629   3.487
  310SOL    HW1  943   1.619   1.663   3.397
  310SOL    HW2  944   1.671   1.591   3.533
  311SOL     OW  945   1.111   1.195   2.962
  311SOL    HW1  946   1.071   1.239   3.043
  311SOL    HW2  947   1.070   1.232   2.879
  312SOL     OW  948   1.638   1.099   2.941
  312SOL    HW1  949   1.643   1.180   3.000
  312SOL    HW2  950   1.552   1.101   2.890
  313SOL     OW  951   0.915   0.089   3.264
  313SOL    HW1  952   0.940   0.069   3.169
  313SOL    HW2  953   0.987   0.145   3.306
  314SOL     OW  954   0.980   1.116   3.581
  314SOL    HW1  955   0.881   1.122   3.591
  314SOL    HW2  956   1.003   1.036   3.525
  315SOL     OW  957   0.705   1.050   2.230
  315SOL    HW1  958   0.691   1.057   2.329
  315SOL    HW2  959   0.789   0.999   2.212
  316SOL     OW  960   0.410   0.813   3.113
  316SOL    HW1  961   0.496   0.825   3.163
  316SOL    HW2  962   0.368   0.726   3.140
  317SOL     OW  963   1.274   0.386   3.124
  317SOL    HW1  964   1.295   0.460   3.188
  317SOL    HW2  965   1.185   0.403   3.081
  318SOL     OW  966   0.064   1.564   3.193
  318SOL    HW1  967   0.018   1.646   3.159
  318SOL    HW2  968   0.162   1.583   3.202
  319SOL     OW  969   0.367   1.100   2.363
  319SOL    HW1  970   0.360   1.183   2.307
  319SOL    HW2  971   0.371   1.020   2.303
  320SOL     OW  972   0.566   0.537   2.727
  320SOL    HW1  973   0.578   0.603   2.653
  320SOL    HW2  974   0.612   0.571   2.810
  321SOL     OW  975   1.252   1.348   2.250
  321SOL    HW1  976   1.302   1.425   2.290
  321SOL    HW2  977   1.157   1.350   2.282
  322SOL     OW  978   1.272   1.445   3.004
  322SOL    HW1  979   1.319   1.458   3.091
  322SOL    HW2  980   1.206   1.371   3.013
  323SOL     OW  981   1.582   0.639   2.334
  323SOL    HW1  982   1.551   0.700   2.407
  323SOL    HW2  983   1.632   0.691   2.265
  324SOL     OW  984   0.354   1.510   3.191
  324SOL    HW1  985   0.333   1.466   3.104
  324SOL    HW2  986   0.451   1.536   3.194
  325SOL     OW  987   0.402   0.751   3.460
  325SOL    HW1  988   0.470   0.806   3.413
  325SOL    HW2  989   0.442   0.663   3.487
  326SOL     OW  990   1.587   0.779   3.532
  326SOL    HW1  991   1.495   0.817   3.527
  326SOL    HW2  992   1.647   0.826   3.467
  327SOL     OW  993   1.013   0.105   3.632
  327SOL    HW1  994   1.019   0.190   3.580
  327SOL    HW2  995   1.045   0.029   3.575
  328SOL     OW  996   0.504   0.050   3.602
  328SOL    HW1  997   0.462  -0.007   3.532
  328SOL    HW2  998   0.438   0.119   3.634
  329SOL     OW  999   0.573   0.870   2.891
  329SOL    HW1 1000   0.617   0.959   2.882
  329SOL    HW2 1001   0.510   0.870   2.968
  330SOL     OW 1002   1.360   0.862   2.907
  330SOL    HW1 1003   1.285   0.862   2.841
  330SOL    HW2 1004   1.397   0.770   2.916
  331SOL     OW 1005   1.209   0.525   2.137
  331SOL    HW1 1006   1.222   0.441   2.191
  331SOL    HW2 1007   1.180   0.599   2.197
  332SOL     OW 1008   0.307   0.213   3.093
  332SOL    HW1 1009   0.284   0.250   3.183
  332SOL    HW2 1010   0.277   0.118   3.087
  333SOL     OW 1011   0.037   1.310   3.144
  333SOL    HW1 1012   0.090   1.261   3.212
  333SOL    HW2 1013   0.059   1.408   3.149
  334SOL     OW 1014   0.732   0.634   2.926
  334SOL    HW1 1015   0.791   0.608   2.850
  334SOL    HW2 1016   0.704   0.730   2.915
  335SOL     OW 1017   1.728   0.935   3.716
  335SOL    HW1 1018   1.682   0.928   3.627
  335SOL    HW2 1019   1.666   0.979   3.782
  336SOL     OW 1020   0.307   0.063   2.480
  336SOL    HW1 1021   0.296   0.157   2.513
  336SOL    HW2 1022   0.302   0.000   2.557
  337SOL     OW 1023   1.622   0.367   2.236
  337SOL    HW1 1024   1.624   0.291   2.300
  337SOL    HW2 1025   1.574   0.444   2.276
  338SOL     OW 1026   1.023   0.766   2.828
  338SOL    HW1 1027   1.038   0.787   2.924
  338SOL    HW2 1028   0.993   0.671   2.819
  339SOL     OW 1029   0.980   1.573   3.562
  339SOL    HW1 1030   0.960   1.617   3.474
  339SOL    HW2 1031   1.019   1.482   3.546
  340SOL     OW 1032   1.859   1.518   3.467
  340SOL    HW1 1033   1.873   1.545   3.372
  340SOL    HW2 1034   1.942   1.540   3.520
  341SOL     OW 1035   0.350   0.898   3.666
  341SOL    HW1 1036   0.426   0.942   3.714
  341SOL    HW2 1037   0.385   0.851   3.584
  342SOL     OW 1038   1.540   0.274   1.987
  342SOL    HW1 1039   1.479   0.199   2.010
  342SOL    HW2 1040   1.562   0.326   2.070
  343SOL     OW 1041   1.303   0.838   1.904
  343SOL    HW1 1042   1.337   0.745   1.919
  343SOL    HW2 1043   1.321   0.865   1.809
  344SOL     OW 1044   1.068   1.333   2.711
  344SOL    HW1 1045   1.075   1.249   2.656
  344SOL    HW2 1046   1.130   1.402   2.675
  345SOL     OW 1047   0.319   0.810   2.811
  345SOL    HW1 1048   0.412   0.846   2.816
  345SOL    HW2 1049   0.313   0.725   2.863
  346SOL     OW 1050   0.339   0.509   2.868
  346SOL    HW1 1051   0.287   0.426   2.851
  346SOL    HW2 1052   0.416   0.514   2.804
  347SOL     OW 1053   1.138   0.380   3.540
  347SOL    HW1 1054   1.093   0.443   3.604
  347SOL    HW2 1055   1.231   0.411   3.523
  348SOL     OW 1056   1.160   0.207   3.339
  348SOL    HW1 1057   1.160   0.271   3.416
  348SOL    HW2 1058   1.188   0.255   3.256
  349SOL     OW 1059   0.008   1.326   2.062
  349SOL    HW1 1060  -0.085   1.347   2.031
  349SOL    HW2 1061   0.018   1.227   2.075
  350SOL     OW 1062   0.088   1.801   2.789
  350SOL    HW1 1063   0.046   1.715   2.762
  350SOL    HW2 1064   0.182   1.804   2.755
  351SOL     OW 1065   0.504   1.568   2.772
  351SOL    HW1 1066   0.570   1.642   2.781
  351SOL    HW2 1067   0.548   1.489   2.730
  352SOL     OW 1068   1.002   0.796   3.100
  352SOL    HW1 1069   1.043   0.764   3.186
  352SOL    HW2 1070   0.906   0.769   3.097
  353SOL     OW 1071   0.040   0.544   2.976
  353SOL    HW1 1072   0.125   0.511   2.935
  353SOL    HW2 1073   0.053   0.559   3.074
  354SOL     OW 1074   0.189   0.520   3.584
  354SOL    HW1 1075   0.248   0.480   3.514
  354SOL    HW2 1076   0.131   0.591   3.543
  355SOL     OW 1077   1.369   0.950   3.522
  355SOL    HW1 1078   1.408   1.039   3.542
  355SOL    HW2 1079   1.379   0.930   3.425
  356SOL     OW 1080   0.815   0.572   2.187
  356SOL    HW1 1081   0.822   0.483   2.141
  356SOL    HW2 1082   0.721   0.606   2.179
  357SOL     OW 1083   1.657   0.604   3.068
  357SOL    HW1 1084   1.619   0.535   3.130
  357SOL    HW2 1085   1.739   0.568   3.024
  358SOL     OW 1086   0.252   1.564   3.606
  358SOL    HW1 1087   0.222   1.621   3.682
  358SOL    HW2 1088   0.245   1.467   3.632
  359SOL     OW 1089   0.671   0.464   3.131
  359SOL    HW1 1090   0.637   0.375   3.101
  359SOL    HW2 1091   0.697   0.518   3.051
  360SOL     OW 1092   0.930   1.678   3.327
  360SOL    HW1 1093   0.906   1.660   3.232
  360SOL    HW2 1094   0.960   1.772   3.337
  361SOL     OW 1095   0.473   0.500   2.053
  361SOL    HW1 1096   0.534   0.580   2.057
  361SOL    HW2 1097   0.378   0.531   2.060
  362SOL     OW 1098   0.159   1.137   3.328
  362SOL    HW1 1099   0.181   1.076   3.404
  362SOL    HW2 1100   0.169   1.088   3.242
  363SOL     OW 1101   1.347   1.059   3.096
  363SOL    HW1 1102   1.371   0.996   3.022
  363SOL    HW2 1103   1.257   1.099   3.078
  364SOL     OW 1104   1.302   0.855   2.171
  364SOL    HW1 1105   1.216   0.824   2.213
  364SOL    HW2 1106   1.298   0.841   2.072
  365SOL     OW 1107   1.759   1.747   3.016
  365SOL    HW1 1108   1.820   1.777   2.943
  365SOL    HW2 1109   1.721   1.658   2.994
  366SOL     OW 1110   1.252   1.731   2.990
  366SOL    HW1 1111   1.336   1.736   2.936
  366SOL    HW2 1112   1.229   1.635   3.008
  367SOL     OW 1113   0.083   1.258   2.884
  367SOL    HW1 1114   0.078   1.257   2.984
  367SOL    HW2 1115   0.000   1.217   2.846
  368SOL     OW 1116   0.688   1.662   3.578
  368SOL    HW1 1117   0.632   1.743   3.587
  368SOL    HW2 1118   0.740   1.666   3.492
  369SOL     OW 1119   1.726   0.135   2.385
  369SOL    HW1 1120   1.799   0.118   2.318
  369SOL    HW2 1121   1.695   0.048   2.423
  370SOL     OW 1122   1.388   1.573   2.339
  370SOL    HW1 1123   1.455   1.585   2.265
  370SOL    HW2 1124   1.348   1.662   2.362
  371SOL     OW 1125   0.130   1.794   3.713
  371SOL    HW1 1126   0.089   1.720   3.766
  371SOL    HW2 1127   0.194   1.845   3.771
  372SOL     OW 1128   1.280   0.927   2.534
  372SOL    HW1 1129   1.340   0.846   2.536
  372SOL    HW2 1130   1.320   0.996   2.474
  373SOL     OW 1131   0.830   1.273   3.284
  373SOL    HW1 1132   0.825   1.306   3.379
  373SOL    HW2 1133   0.744   1.292   3.238
  374SOL     OW 1134   0.672   1.616   2.016
  374SOL    HW1 1135   0.681   1.626   1.917
  374SOL    HW2 1136   0.632   1.527   2.037
  375SOL     OW 1137   1.650   1.720   3.256
  375SOL    HW1 1138   1.703   1.730   3.172
  375SOL    HW2 1139   1.623   1.810   3.290
  376SOL     OW 1140   1.841   0.175   2.825
  376SOL    HW1 1141   1.880   0.090   2.789
  376SOL    HW2 1142   1.743   0.177   2.806
  377SOL     OW 1143   0.263   0.326   2.582
  377SOL    HW1 1144   0.184   0.377   2.548
  377SOL    HW2 1145   0.254   0.311   2.680
  378SOL     OW 1146   1.194   1.612   1.893
  378SOL    HW1 1147   1.200   1.519   1.930
  378SOL    HW2 1148   1.135   1.612   1.813
  379SOL     OW 1149   0.822   1.002   3.234
  379SOL    HW1 1150   0.862   1.001   3.142
  379SOL    HW2 1151   0.832   1.094   3.274
  380SOL     OW 1152   0.916   0.910   2.153
  380SOL    HW1 1153   0.979   0.948   2.085
  380SOL    HW2 1154   0.956   0.827   2.192
  381SOL     OW 1155   1.504   1.607   1.906
  381SOL    HW1 1156   1.412   1.644   1.913
  381SOL    HW2 1157   1.542   1.627   1.816
  382SOL     OW 1158   0.372   1.288   3.352
  382SOL    HW1 1159   0.359   1.381   3.318
  382SOL    HW2 1160   0.288   1.236   3.339
  383SOL     OW 1161   1.614   1.292   3.151
  383SOL    HW1 1162   1.674   1.295   3.231
  383SOL    HW2 1163   1.539   1.356   3.164
  384SOL     OW 1164   1.039   1.098   2.558
  384SOL    HW1 1165   0.969   1.051   2.612
  384SOL    HW2 1166   1.098   1.030   2.515
  385SOL     OW 1167   1.014   0.236   2.833
  385SOL    HW1 1168   1.006   0.200   2.740
  385SOL    HW2 1169   1.012   0.160   2.898
  386SOL     OW 1170   0.590   1.487   2.353
  386SOL    HW1 1171   0.632   1.429   2.283
  386SOL    HW2 1172   0.546   1.566   2.309
  387SOL     OW 1173   1.709   0.385   3.243
  387SOL    HW1 1174   1.782   0.454   3.247
  387SOL    HW2 1175   1.737   0.310   3.184
  388SOL     OW 1176   0.255   1.348   2.152
  388SOL    HW1 1177   0.159   1.349   2.125
  388SOL    HW2 1178   0.267   1.401   2.236
  389SOL     OW 1179   0.105   1.013   3.588
  389SOL    HW1 1180   0.028   0.980   3.642
  389SOL    HW2 1181   0.190   0.983   3.630
  390SOL     OW 1182   0.672   0.203   3.351
  390SOL    HW1 1183   0.762   0.187   3.311
  390SOL    HW2 1184   0.680   0.208   3.450
  391SOL     OW 1185   0.075   0.345   1.895
  391SOL    HW1 1186  -0.017   0.317   1.866
  391SOL    HW2 1187   0.106   0.422   1.839
  392SOL     OW 1188   1.440   0.856   3.260
  392SOL    HW1 1189   1.383   0.908   3.197
  392SOL    HW2 1190   1.536   0.868   3.236
  393SOL     OW 1191   0.072   0.166   2.180
  393SOL    HW1 1192   0.055   0.249   2.126
  393SOL    HW2 1193   0.162   0.129   2.158
  394SOL     OW 1194   1.183   1.335   1.981
  394SOL    HW1 1195   1.084   1.324   1.983
  394SOL    HW2 1196   1.217   1.350   2.074
  395SOL     OW 1197   0.613   0.842   3.293
  395SOL    HW1 1198   0.669   0.923   3.276
  395SOL    HW2 1199   0.672   0.762   3.296
  396SOL     OW 1200   1.493   1.767   2.821
  396SOL    HW1 1201   1.526   1.831   2.752
  396SOL    HW2 1202   1.559   1.761   2.896
  397SOL     OW 1203   0.716   0.565   3.570
  397SOL    HW1 1204   0.735   0.630   3.644
  397SOL    HW2 1205   0.776   0.485   3.579
  398SOL     OW 1206   1.450   1.220   3.495
  398SOL    HW1 1207   1.441   1.210   3.594
  398SOL    HW2 1208   1.546   1.213   3.469
  399SOL     OW 1209   0.390   1.741   3.422
  399SOL    HW1 1210   0.299   1.782   3.420
  399SOL    HW2 1211   0.383   1.647   3.454
  400SOL     OW 1212   1.674   0.883   3.116
  400SOL    HW1 1213   1.647   0.794   3.079
  400SOL    HW2 1214   1.675   0.951   3.043
  401SOL     OW 1215   1.225   0.325   2.311
  401SOL    HW1 1216   1.290   0.251   2.300
  401SOL    HW2 1217   1.245   0.375   2.395
  402SOL     OW 1218   0.594   0.745   2.514
  402SOL    HW1 1219   0.644   0.830   2.495
  402SOL    HW2 1220   0.506   0.747   2.466
  403SOL     OW 1221   1.777   0.342   3.504
  403SOL    HW1 1222   1.760   0.373   3.410
  403SOL    HW2 1223   1.693   0.305   3.542
  404SOL     OW 1224   1.730   0.934   3.379
  404SOL    HW1 1225   1.768   1.025   3.394
  404SOL    HW2 1226   1.722   0.917   3.280
  405SOL     OW 1227   0.859   1.374   1.878
  405SOL    HW1 1228   0.813   1.389   1.966
  405SOL    HW2 1229   0.903   1.459   1.848
  406SOL     OW 1230   0.661   1.790   2.815
  406SOL    HW1 1231   0.615   1.878   2.802
  406SOL    HW2 1232   0.760   1.802   2.808
  407SOL     OW 1233   0.859   0.956   2.723
  407SOL    HW1 1234   0.913   0.887   2.771
  407SOL    HW2 1235   0.827   1.025   2.789
  408SOL     OW 1236   1.083   0.984   1.949
  408SOL    HW1 1237   1.060   1.037   1.867
  408SOL    HW2 1238   1.164   0.928   1.930
  409SOL     OW 1239   1.861   1.569   2.713
  409SOL    HW1 1240   1.790   1.557   2.643
  409SOL    HW2 1241   1.862   1.490   2.773
  410SOL     OW 1242   0.221   1.314   3.706
  410SOL    HW1 1243   0.156   1.241   3.685
  410SOL    HW2 1244   0.225   1.328   3.804
  411SOL     OW 1245   0.079   1.240   2.515
  411SOL    HW1 1246   0.078   1.193   2.603
  411SOL    HW2 1247   0.161   1.212   2.464
  412SOL     OW 1248   0.672   1.391   3.486
  412SOL    HW1 1249   0.594   1.341   3.524
  412SOL    HW2 1250   0.669   1.486   3.517
  413SOL     OW 1251   1.824   0.192   3.089
  413SOL    HW1 1252   1.820   0.102   3.133
  413SOL    HW2 1253   1.827   0.181   2.990
  414SOL     OW 1254   0.428   0.424   2.382
  414SOL    HW1 1255   0.458   0.352   2.320
  414SOL    HW2 1256   0.389   0.384   2.465
  415SOL     OW 1257   1.705   1.487   2.966
  415SOL    HW1 1258   1.612   1.462   2.939
  415SOL    HW2 1259   1.731   1.437   3.048
  416SOL     OW 1260   0.317   0.547   3.142
  416SOL    HW1 1261   0.355   0.488   3.214
  416SOL    HW2 1262   0.357   0.521   3.054
  417SOL     OW 1263   0.812   1.586   2.549
  417SOL    HW1 1264   0.844   1.596   2.455
  417SOL    HW2 1265   0.733   1.524   2.551
  418SOL     OW 1266   1.424   0.214   2.974
  418SOL    HW1 1267   1.476   0.149   3.029
  418SOL    HW2 1268   1.375   0.277   3.035
  419SOL     OW 1269   1.001   0.034   3.016
  419SOL    HW1 1270   0.938  -0.038   2.985
  419SOL    HW2 1271   1.094  -0.002   3.016
  420SOL     OW 1272   0.770   1.330   2.163
  420SOL    HW1 1273   0.724   1.243   2.180
  420SOL    HW2 1274   0.861   1.327   2.204
  421SOL     OW 1275   0.618   1.567   3.146
  421SOL    HW1 1276   0.613   1.649   3.203
  421SOL    HW2 1277   0.707   1.564   3.101
  422SOL     OW 1278   1.352   0.052   2.030
  422SOL    HW1 1279   1.387   0.011   1.946
  422SOL    HW2 1280   1.262   0.014   2.050
  423SOL     OW 1281   1.300   0.453   2.553
  423SOL    HW1 1282   1.241   0.533   2.557
  423SOL    HW2 1283   1.315   0.418   2.646
  424SOL     OW 1284   1.593   0.221   2.744
  424SOL    HW1 1285   1.509   0.220   2.798
  424SOL    HW2 1286   1.595   0.304   2.688
  425SOL     OW 1287   0.039   1.077   2.162
  425SOL    HW1 1288   0.138   1.066   2.153
  425SOL    HW2 1289  -0.001   0.991   2.194
  426SOL     OW 1290   0.875   1.646   2.199
  426SOL    HW1 1291   0.798   1.611   2.145
  426SOL    HW2 1292   0.843   1.717   2.261
  427SOL     OW 1293   0.230   0.628   3.837
  427SOL    HW1 1294   0.137   0.626   3.874
  427SOL    HW2 1295   0.231   0.589   3.745
  428SOL     OW 1296   0.019   0.368   4.371
  428SOL    HW1 1297  -0.063   0.411   4.410
  428SOL    HW2 1298  -0.009   0.295   4.308
  429SOL     OW 1299   1.555   1.511   4.427
  429SOL    HW1 1300   1.498   1.495   4.508
  429SOL    HW2 1301   1.496   1.521   4.347
  430SOL     OW 1302   1.135   0.703   4.441
  430SOL    HW1 1303   1.192   0.781   4.416
  430SOL    HW2 1304   1.075   0.729   4.517
  431SOL     OW 1305   1.755   0.607   3.955
  431SOL    HW1 1306   1.743   0.594   3.856
  431SOL    HW2 1307   1.725   0.526   4.004
  432SOL     OW 1308   0.768   1.144   4.747
  432SOL    HW1 1309   0.690   1.161   4.807
  432SOL    HW2 1310   0.802   1.231   4.711
  433SOL     OW 1311   0.685   1.012   4.389
  433SOL    HW1 1312   0.754   0.996   4.459
  433SOL    HW2 1313   0.612   1.069   4.427
  434SOL     OW 1314   1.603   0.447   4.461
  434SOL    HW1 1315   1.529   0.493   4.411
  434SOL    HW2 1316   1.654   0.515   4.514
  435SOL     OW 1317   0.231   1.713   4.207
  435SOL    HW1 1318   0.265   1.790   4.261
  435SOL    HW2 1319   0.275   1.713   4.117
  436SOL     OW 1320   0.230   1.434   4.262
  436SOL    HW1 1321   0.204   1.530   4.262
  436SOL    HW2 1322   0.159   1.380   4.307
  437SOL     OW 1323   0.240   1.091   4.610
  437SOL    HW1 1324   0.254   1.007   4.662
  437SOL    HW2 1325   0.185   1.155   4.665
  438SOL     OW 1326   0.606   0.964   3.847
  438SOL    HW1 1327   0.613   1.048   3.793
  438SOL    HW2 1328   0.652   0.977   3.935
  439SOL     OW 1329   0.122   0.643   4.287
  439SOL    HW1 1330   0.077   0.555   4.304
  439SOL    HW2 1331   0.121   0.697   4.371
  440SOL     OW 1332   1.842   1.767   4.083
  440SOL    HW1 1333   1.896   1.738   4.163
  440SOL    HW2 1334   1.872   1.857   4.054
  441SOL     OW 1335   0.027   1.596   3.841
  441SOL    HW1 1336   0.008   1.500   3.862
  441SOL    HW2 1337  -0.006   1.654   3.916
  442SOL     OW 1338   1.689   0.922   4.336
  442SOL    HW1 1339   1.784   0.893   4.344
  442SOL    HW2 1340   1.681   0.987   4.261
  443SOL     OW 1341   1.641   1.108   4.156
  443SOL    HW1 1342   1.727   1.110   4.104
  443SOL    HW2 1343   1.655   1.155   4.244
  444SOL     OW 1344   0.613   1.365   4.450
  444SOL    HW1 1345   0.564   1.278   4.459
  444SOL    HW2 1346   0.590   1.408   4.363
  445SOL     OW 1347   0.809   0.004   4.226
  445SOL    HW1 1348   0.849   0.095   4.217
  445SOL    HW2 1349   0.709   0.012   4.232
  446SOL     OW 1350   1.525   0.999   3.914
  446SOL    HW1 1351   1.462   0.923   3.927
  446SOL    HW2 1352   1.573   1.017   4.000
  447SOL     OW 1353   1.466   1.417   4.677
  447SOL    HW1 1354   1.407   1.423   4.757
  447SOL    HW2 1355   1.451   1.329   4.631
  448SOL     OW 1356   1.667   1.714   4.296
  448SOL    HW1 1357   1.626   1.691   4.208
  448SOL    HW2 1358   1.649   1.640   4.361
  449SOL     OW 1359   0.598   0.729   3.994
  449SOL    HW1 1360   0.622   0.798   3.926
  449SOL    HW2 1361   0.520   0.762   4.048
  450SOL     OW 1362   1.281   0.345   4.668
  450SOL    HW1 1363   1.195   0.295   4.655
  450SOL    HW2 1364   1.343   0.291   4.724
  451SOL     OW 1365   1.576   1.662   4.031
  451SOL    HW1 1366   1.665   1.708   4.034
  451SOL    HW2 1367   1.555   1.638   3.936
  452SOL     OW 1368   1.041   0.701   4.153
  452SOL    HW1 1369   1.067   0.697   4.249
  452SOL    HW2 1370   0.956   0.650   4.139
  453SOL     OW 1371   0.076   0.811   4.513
  453SOL    HW1 1372   0.175   0.799   4.522
  453SOL    HW2 1373   0.052   0.906   4.534
  454SOL     OW 1374   0.865   0.348   3.919
  454SOL    HW1 1375   0.924   0.411   3.870
  454SOL    HW2 1376   0.884   0.254   3.890
  455SOL     OW 1377   1.362   1.144   4.269
  455SOL    HW1 1378   1.445   1.115   4.221
  455SOL    HW2 1379   1.313   1.211   4.213
  456SOL     OW 1380   1.008   1.456   4.201
  456SOL    HW1 1381   0.962   1.528   4.149
  456SOL    HW2 1382   1.004   1.476   4.299
  457SOL     OW 1383   0.351   1.801   4.577
  457SOL    HW1 1384   0.401   1.715   4.583
  457SOL    HW2 1385   0.416   1.878   4.574
  458SOL     OW 1386   1.795   1.066   4.597
  458SOL    HW1 1387   1.733   1.051   4.521
  458SOL    HW2 1388   1.743   1.077   4.682
  459SOL     OW 1389   0.321   0.943   3.966
  459SOL    HW1 1390   0.403   0.982   3.924
  459SOL    HW2 1391   0.294   0.861   3.917
  460SOL     OW 1392   1.458   0.735   4.452
  460SOL    HW1 1393   1.453   0.670   4.527
  460SOL    HW2 1394   1.538   0.794   4.465
  461SOL     OW 1395   1.111   1.776   3.961
  461SOL    HW1 1396   1.051   1.714   4.011
  461SOL    HW2 1397   1.142   1.732   3.876
  462SOL     OW 1398   1.632   1.377   3.805
  462SOL    HW1 1399   1.600   1.471   3.795
  462SOL    HW2 1400   1.556   1.314   3.793
  463SOL     OW 1401   0.464   1.743   4.047
  463SOL    HW1 1402   0.497   1.782   4.133
  463SOL    HW2 1403   0.540   1.736   3.982
  464SOL     OW 1404   1.400   0.107   4.150
  464SOL    HW1 1405   1.376   0.070   4.060
  464SOL    HW2 1406   1.499   0.123   4.154
  465SOL     OW 1407   0.382   0.700   4.204
  465SOL    HW1 1408   0.427   0.610   4.201
  465SOL    HW2 1409   0.288   0.689   4.237
  466SOL     OW 1410   0.614   0.122   3.841
  466SOL    HW1 1411   0.712   0.100   3.848
  466SOL    HW2 1412   0.583   0.105   3.748
  467SOL     OW 1413   0.539   0.064   4.236
  467SOL    HW1 1414   0.458   0.065   4.294
  467SOL    HW2 1415   0.542   0.147   4.181
  468SOL     OW 1416   1.434   1.188   3.765
  468SOL    HW1 1417   1.466   1.112   3.822
  468SOL    HW2 1418   1.342   1.215   3.795
  469SOL     OW 1419   0.297   0.035   3.895
  469SOL    HW1 1420   0.346   0.119   3.874
  469SOL    HW2 1421   0.359  -0.030   3.940
  470SOL     OW 1422   0.935   0.236   4.204
  470SOL    HW1 1423   0.887   0.277   4.126
  470SOL    HW2 1424   1.034   0.234   4.185
  471SOL     OW 1425   1.227   1.570   4.517
  471SOL    HW1 1426   1.248   1.644   4.452
  471SOL    HW2 1427   1.295   1.570   4.590
  472SOL     OW 1428   0.459   1.152   4.465
  472SOL    HW1 1429   0.388   1.125   4.530
  472SOL    HW2 1430   0.433   1.124   4.372
  473SOL     OW 1431   1.271   1.797   4.315
  473SOL    HW1 1432   1.315   1.861   4.251
  473SOL    HW2 1433   1.221   1.849   4.385
  474SOL     OW 1434   1.032   0.549   3.740
  474SOL    HW1 1435   0.991   0.631   3.701
  474SOL    HW2 1436   1.096   0.575   3.813
  475SOL     OW 1437   0.866   0.454   4.366
  475SOL    HW1 1438   0.834   0.526   4.304
  475SOL    HW2 1439   0.890   0.373   4.313
  476SOL     OW 1440   1.017   0.039   4.477
  476SOL    HW1 1441   0.945   0.044   4.408
  476SOL    HW2 1442   0.993  -0.030   4.546
  477SOL     OW 1443   1.429   1.173   4.591
  477SOL    HW1 1444   1.374   1.089   4.584
  477SOL    HW2 1445   1.455   1.202   4.499
  478SOL     OW 1446   1.857   0.833   4.101
  478SOL    HW1 1447   1.899   0.769   4.165
  478SOL    HW2 1448   1.819   0.782   4.023
  479SOL     OW 1449   0.488   1.385   3.898
  479SOL    HW1 1450   0.401   1.370   3.945
  479SOL    HW2 1451   0.471   1.411   3.803
  480SOL     OW 1452   1.664   1.280   4.381
  480SOL    HW1 1453   1.763   1.288   4.395
  480SOL    HW2 1454   1.619   1.364   4.412
  481SOL     OW 1455   1.390   0.575   3.802
  481SOL    HW1 1456   1.336   0.554   3.883
  481SOL    HW2 1457   1.481   0.534   3.811
  482SOL     OW 1458   0.527   0.256   4.052
  482SOL    HW1 1459   0.554   0.197   3.977
  482SOL    HW2 1460   0.527   0.351   4.021
  483SOL     OW 1461   0.705   1.050   4.092
  483SOL    HW1 1462   0.691   1.057   4.191
  483SOL    HW2 1463   0.789   0.999   4.074
  484SOL     OW 1464   0.367   1.100   4.225
  484SOL    HW1 1465   0.360   1.183   4.169
  484SOL    HW2 1466   0.371   1.020   4.165
  485SOL     OW 1467   0.566   0.537   4.589
  485SOL    HW1 1468   0.578   0.603   4.515
  485SOL    HW2 1469   0.612   0.571   4.672
  486SOL     OW 1470   1.252   1.348   4.112
  486SOL    HW1 1471   1.302   1.425   4.152
  486SOL    HW2 1472   1.157   1.350   4.144
  487SOL     OW 1473   1.582   0.639   4.196
  487SOL    HW1 1474   1.551   0.700   4.269
  487SOL    HW2 1475   1.632   0.691   4.127
  488SOL     OW 1476   1.209   0.525   3.999
  488SOL    HW1 1477   1.222   0.441   4.053
  488SOL    HW2 1478   1.180   0.599   4.059
  489SOL     OW 1479   0.732   0.634   4.788
  489SOL    HW1 1480   0.791   0.608   4.712
  489SOL    HW2 1481   0.704   0.730   4.777
  490SOL     OW 1482   0.307   0.063   4.342
  490SOL    HW1 1483   0.296   0.157   4.375
  490SOL    HW2 1484   0.302   0.000   4.419
  491SOL     OW 1485   1.622   0.367   4.098
  491SOL    HW1 1486   1.624   0.291   4.162
  491SOL    HW2 1487   1.574   0.444   4.138
  492SOL     OW 1488   1.540   0.274   3.849
  492SOL    HW1 1489   1.479   0.199   3.872
  492SOL    HW2 1490   1.562   0.326   3.932
  493SOL     OW 1491   1.303   0.838   3.766
  493SOL    HW1 1492   1.337   0.745   3.781
  493SOL    HW2 1493   1.321   0.865   3.671
  494SOL     OW 1494   1.068   1.333   4.573
  494SOL    HW1 1495   1.075   1.249   4.518
  494SOL    HW2 1496   1.130   1.402   4.537
  495SOL     OW 1497   0.319   0.810   4.673
  495SOL    HW1 1498   0.412   0.846   4.678
  495SOL    HW2 1499   0.313   0.725   4.725
  496SOL     OW 1500   0.008   1.326   3.924
  496SOL    HW1 1501  -0.085   1.347   3.893
  496SOL    HW2 1502   0.018   1.227   3.937
  497SOL     OW 1503   0.088   1.801   4.651
  497SOL    HW1 1504   0.046   1.715   4.624
  497SOL    HW2 1505   0.182   1.804   4.617
  498SOL     OW 1506   0.504   1.568   4.634
  498SOL    HW1 1507   0.570   1.642   4.643
  498SOL    HW2 1508   0.548   1.489   4.592
  499SOL     OW 1509   0.815   0.572   4.049
  499SOL    HW1 1510   0.822   0.483   4.003
  499SOL    HW2 1511   0.721   0.606   4.041
  500SOL     OW 1512   0.473   0.500   3.915
  500SOL    HW1 1513   0.534   0.580   3.919
  500SOL    HW2 1514   0.378   0.531   3.922
  501SOL     OW 1515   1.302   0.855   4.033
  501SOL    HW1 1516   1.216   0.824   4.075
  501SOL    HW2 1517   1.298   0.841   3.934
  502SOL     OW 1518   1.759   1.747   4.878
  502SOL    HW1 1519   1.820   1.777   4.805
  502SOL    HW2 1520   1.721   1.658   4.856
  503SOL     OW 1521   1.726   0.135   4.247
  503SOL    HW1 1522   1.799   0.118   4.180
  503SOL    HW2 1523   1.695   0.048   4.285
  504SOL     OW 1524   1.388   1.573   4.201
  504SOL    HW1 1525   1.455   1.585   4.127
  504SOL    HW2 1526   1.348   1.662   4.224
  505SOL     OW 1527   1.280   0.927   4.396
  505SOL    HW1 1528   1.340   0.846   4.398
  505SOL    HW2 1529   1.320   0.996   4.336
  506SOL     OW 1530   0.672   1.616   3.878
  506SOL    HW1 1531   0.681   1.626   3.779
  506SOL    HW2 1532   0.632   1.527   3.899
  507SOL     OW 1533   1.841   0.175   4.687
  507SOL    HW1 1534   1.880   0.090   4.651
  507SOL    HW2 1535   1.743   0.177   4.668
  508SOL     OW 1536   0.263   0.326   4.444
  508SOL    HW1 1537   0.184   0.377   4.410
  508SOL    HW2 1538   0.254   0.311   4.542
  509SOL     OW 1539   1.194   1.612   3.755
  509SOL    HW1 1540   1.200   1.519   3.792
  509SOL    HW2 1541   1.135   1.612   3.675
  510SOL     OW 1542   0.916   0.910   4.015
  510SOL    HW1 1543   0.979   0.948   3.947
  510SOL    HW2 1544   0.956   0.827   4.054
  511SOL     OW 1545   1.504   1.607   3.768
  511SOL    HW1 1546   1.412   1.644   3.775
  511SOL    HW2 1547   1.542   1.627   3.678
  512SOL     OW 1548   1.039   1.098   4.420
  512SOL    HW1 1549   0.969   1.051   4.474
  512SOL    HW2 1550   1.098   1.030   4.377
  513SOL     OW 1551   0.590   1.487   4.215
  513SOL    HW1 1552   0.632   1.429   4.145
  513SOL    HW2 1553   0.546   1.566   4.171
  514SOL     OW 1554   0.255   1.348   4.014
  514SOL    HW1 1555   0.159   1.349   3.987
  514SOL    HW2 1556   0.267   1.401   4.098
  515SOL     OW 1557   0.075   0.345   3.757
  515SOL    HW1 1558  -0.017   0.317   3.728
  515SOL    HW2 1559   0.106   0.422   3.701
  516SOL     OW 1560   0.072   0.166   4.042
  516SOL    HW1 1561   0.055   0.249   3.988
  516SOL    HW2 1562   0.162   0.129   4.020
  517SOL     OW 1563   1.183   1.335   3.843
  517SOL    HW1 1564   1.084   1.324   3.845
  517SOL    HW2 1565   1.217   1.350   3.936
  518SOL     OW 1566   1.674   0.883   4.978
  518SOL    HW1 1567   1.647   0.794   4.941
  518SOL    HW2 1568   1.675   0.951   4.905
  519SOL     OW 1569   1.225   0.325   4.173
  519SOL    HW1 1570   1.290   0.251   4.162
  519SOL    HW2 1571   1.245   0.375   4.257
  520SOL     OW 1572   0.594   0.745   4.376
  520SOL    HW1 1573   0.644   0.830   4.357
  520SOL    HW2 1574   0.506   0.747   4.328
  521SOL     OW 1575   0.859   1.374   3.740
  521SOL    HW1 1576   0.813   1.389   3.828
  521SOL    HW2 1577   0.903   1.459   3.710
  522SOL     OW 1578   0.661   1.790   4.677
  522SOL    HW1 1579   0.615   1.878   4.664
  522SOL    HW2 1580   0.760   1.802   4.670
  523SOL     OW 1581   0.859   0.956   4.585
  523SOL    HW1 1582   0.913   0.887   4.633
  523SOL    HW2 1583   0.827   1.025   4.651
  524SOL     OW 1584   1.083   0.984   3.811
  524SOL    HW1 1585   1.060   1.037   3.729
  524SOL    HW2 1586   1.164   0.928   3.792
  525SOL     OW 1587   1.861   1.569   4.575
  525SOL    HW1 1588   1.790   1.557   4.505
  525SOL    HW2 1589   1.862   1.490   4.635
  526SOL     OW 1590   0.079   1.240   4.377
  526SOL    HW1 1591   0.078   1.193   4.465
  526SOL    HW2 1592   0.161   1.212   4.326
  527SOL     OW 1593   1.824   0.192   4.951
  527SOL    HW1 1594   1.820   0.102   4.995
  527SOL    HW2 1595   1.827   0.181   4.852
  528SOL     OW 1596   0.428   0.424   4.244
  528SOL    HW1 1597   0.458   0.352   4.182
  528SOL    HW2 1598   0.389   0.384   4.327
  529SOL     OW 1599   0.812   1.586   4.411
  529SOL    HW1 1600   0.844   1.596   4.317
  529SOL    HW2 1601   0.733   1.524   4.413
  530SOL     OW 1602   0.770   1.330   4.025
  530SOL    HW1 1603   0.724   1.243   4.042
  530SOL    HW2 1604   0.861   1.327   4.066
  531SOL     OW 1605   1.352   0.052   3.892
  531SOL    HW1 1606   1.387   0.011   3.808
  531SOL    HW2 1607   1.262   0.014   3.912
  532SOL     OW 1608   1.300   0.453   4.415
  532SOL    HW1 1609   1.241   0.533   4.419
  532SOL    HW2 1610   1.315   0.418   4.508
  533SOL     OW 1611   1.593   0.221   4.606
  533SOL    HW1 1612   1.509   0.220   4.660
  533SOL    HW2 1613   1.595   0.304   4.550
  534SOL     OW 1614   0.039   1.077   4.024
  534SOL    HW1 1615   0.138   1.066   4.015
  534SOL    HW2 1616  -0.001   0.991   4.056
  535SOL     OW 1617   0.875   1.646   4.061
  535SOL    HW1 1618   0.798   1.611   4.007
  535SOL    HW2 1619   0.843   1.717   4.123
  536SOL     OW 1620   0.230   2.490   0.113
  536SOL    HW1 1621   0.137   2.488   0.150
  536SOL    HW2 1622   0.231   2.451   0.021
  537SOL     OW 1623   0.225   2.137   0.996
  537SOL    HW1 1624   0.260   2.120   1.088
  537SOL    HW2 1625   0.137   2.092   0.984
  538SOL     OW 1626   0.019   2.230   0.647
  538SOL    HW1 1627  -0.063   2.273   0.686
  538SOL    HW2 1628  -0.009   2.157   0.584
  539SOL     OW 1629   0.569   3.137   1.165
  539SOL    HW1 1630   0.476   3.130   1.128
  539SOL    HW2 1631   0.580   3.226   1.209
  540SOL     OW 1632   1.555   3.373   0.703
  540SOL    HW1 1633   1.498   3.357   0.784
  540SOL    HW2 1634   1.496   3.383   0.623
  541SOL     OW 1635   1.135   2.565   0.717
  541SOL    HW1 1636   1.192   2.643   0.692
  541SOL    HW2 1637   1.075   2.591   0.793
  542SOL     OW 1638   1.755   2.469   0.231
  542SOL    HW1 1639   1.743   2.456   0.132
  542SOL    HW2 1640   1.725   2.388   0.280
  543SOL     OW 1641   0.768   3.006   1.023
  543SOL    HW1 1642   0.690   3.023   1.083
  543SOL    HW2 1643   0.802   3.093   0.987
  544SOL     OW 1644   0.850   2.660   1.823
  544SOL    HW1 1645   0.846   2.736   1.888
  544SOL    HW2 1646   0.872   2.696   1.732
  545SOL     OW 1647   0.685   2.874   0.665
  545SOL    HW1 1648   0.754   2.858   0.735
  545SOL    HW2 1649   0.612   2.931   0.703
  546SOL     OW 1650   0.686   3.023   1.803
  546SOL    HW1 1651   0.746   3.102   1.817
  546SOL    HW2 1652   0.600   3.054   1.762
  547SOL     OW 1653   0.335   3.297   1.061
  547SOL    HW1 1654   0.257   3.266   1.008
  547SOL    HW2 1655   0.393   3.355   1.004
  548SOL     OW 1656   1.460   3.367   1.339
  548SOL    HW1 1657   1.484   3.461   1.365
  548SOL    HW2 1658   1.444   3.313   1.421
  549SOL     OW 1659   0.438   2.254   1.499
  549SOL    HW1 1660   0.520   2.198   1.508
  549SOL    HW2 1661   0.357   2.196   1.503
  550SOL     OW 1662   1.603   2.309   0.737
  550SOL    HW1 1663   1.529   2.355   0.687
  550SOL    HW2 1664   1.654   2.377   0.790
  551SOL     OW 1665   0.231   3.575   0.483
  551SOL    HW1 1666   0.265   3.652   0.537
  551SOL    HW2 1667   0.275   3.575   0.393
  552SOL     OW 1668   1.127   3.203   1.690
  552SOL    HW1 1669   1.174   3.203   1.778
  552SOL    HW2 1670   1.079   3.116   1.679
  553SOL     OW 1671   0.230   3.296   0.538
  553SOL    HW1 1672   0.204   3.392   0.538
  553SOL    HW2 1673   0.159   3.242   0.583
  554SOL     OW 1674   0.240   2.953   0.886
  554SOL    HW1 1675   0.254   2.869   0.938
  554SOL    HW2 1676   0.185   3.017   0.941
  555SOL     OW 1677   0.620   3.648   1.439
  555SOL    HW1 1678   0.528   3.631   1.474
  555SOL    HW2 1679   0.648   3.740   1.465
  556SOL     OW 1680   0.606   2.826   0.123
  556SOL    HW1 1681   0.613   2.910   0.069
  556SOL    HW2 1682   0.652   2.839   0.211
  557SOL     OW 1683   1.594   1.976   1.480
  557SOL    HW1 1684   1.576   2.043   1.408
  557SOL    HW2 1685   1.591   2.022   1.569
  558SOL     OW 1686   0.122   2.505   0.563
  558SOL    HW1 1687   0.077   2.417   0.580
  558SOL    HW2 1688   0.121   2.559   0.647
  559SOL     OW 1689   1.842   3.629   0.359
  559SOL    HW1 1690   1.896   3.600   0.439
  559SOL    HW2 1691   1.872   3.719   0.330
  560SOL     OW 1692   0.027   3.458   0.117
  560SOL    HW1 1693   0.008   3.362   0.138
  560SOL    HW2 1694  -0.006   3.516   0.192
  561SOL     OW 1695   1.689   2.784   0.612
  561SOL    HW1 1696   1.784   2.755   0.620
  561SOL    HW2 1697   1.681   2.849   0.537
  562SOL     OW 1698   1.641   2.970   0.432
  562SOL    HW1 1699   1.727   2.972   0.380
  562SOL    HW2 1700   1.655   3.017   0.520
  563SOL     OW 1701   0.113   2.599   1.597
  563SOL    HW1 1702   0.201   2.586   1.642
  563SOL    HW2 1703   0.100   2.696   1.575
  564SOL     OW 1704   0.613   3.227   0.726
  564SOL    HW1 1705   0.564   3.140   0.735
  564SOL    HW2 1706   0.590   3.270   0.639
  565SOL     OW 1707   1.293   3.090   1.423
  565SOL    HW1 1708   1.330   3.017   1.365
  565SOL    HW2 1709   1.345   3.095   1.508
  566SOL     OW 1710   0.809   1.866   0.502
  566SOL    HW1 1711   0.849   1.957   0.493
  566SOL    HW2 1712   0.709   1.874   0.508
  567SOL     OW 1713   0.197   2.838   1.264
  567SOL    HW1 1714   0.286   2.793   1.250
  567SOL    HW2 1715   0.124   2.773   1.245
  568SOL     OW 1716   1.525   2.861   0.190
  568SOL    HW1 1717   1.462   2.785   0.203
  568SOL    HW2 1718   1.573   2.879   0.276
  569SOL     OW 1719   1.187   3.654   1.616
  569SOL    HW1 1720   1.211   3.714   1.540
  569SOL    HW2 1721   1.194   3.559   1.586
  570SOL     OW 1722   0.317   2.113   1.801
  570SOL    HW1 1723   0.388   2.184   1.807
  570SOL    HW2 1724   0.229   2.152   1.829
  571SOL     OW 1725   1.466   3.279   0.953
  571SOL    HW1 1726   1.407   3.285   1.033
  571SOL    HW2 1727   1.451   3.191   0.907
  572SOL     OW 1728   1.667   3.576   0.572
  572SOL    HW1 1729   1.626   3.553   0.484
  572SOL    HW2 1730   1.649   3.502   0.637
  573SOL     OW 1731   0.598   2.591   0.270
  573SOL    HW1 1732   0.622   2.660   0.202
  573SOL    HW2 1733   0.520   2.624   0.324
  574SOL     OW 1734   1.281   2.207   0.944
  574SOL    HW1 1735   1.195   2.157   0.931
  574SOL    HW2 1736   1.343   2.153   1.000
  575SOL     OW 1737   1.576   3.524   0.307
  575SOL    HW1 1738   1.665   3.570   0.310
  575SOL    HW2 1739   1.555   3.500   0.212
  576SOL     OW 1740   0.807   2.467   1.465
  576SOL    HW1 1741   0.760   2.464   1.554
  576SOL    HW2 1742   0.756   2.412   1.399
  577SOL     OW 1743   1.394   2.331   1.674
  577SOL    HW1 1744   1.374   2.374   1.762
  577SOL    HW2 1745   1.472   2.269   1.683
  578SOL     OW 1746   0.973   2.752   1.572
  578SOL    HW1 1747   1.019   2.668   1.543
  578SOL    HW2 1748   0.917   2.786   1.497
  579SOL     OW 1749   0.991   2.272   1.242
  579SOL    HW1 1750   0.914   2.306   1.296
  579SOL    HW2 1751   0.957   2.221   1.163
  580SOL     OW 1752   1.041   2.563   0.429
  580SOL    HW1 1753   1.067   2.559   0.525
  580SOL    HW2 1754   0.956   2.512   0.415
  581SOL     OW 1755   0.076   2.673   0.789
  581SOL    HW1 1756   0.175   2.661   0.798
  581SOL    HW2 1757   0.052   2.768   0.810
  582SOL     OW 1758   0.130   3.683   1.571
  582SOL    HW1 1759   0.120   3.668   1.670
  582SOL    HW2 1760   0.044   3.719   1.535
  583SOL     OW 1761   0.865   2.210   0.195
  583SOL    HW1 1762   0.924   2.273   0.146
  583SOL    HW2 1763   0.884   2.116   0.166
  584SOL     OW 1764   1.719   2.447   1.831
  584SOL    HW1 1765   1.693   2.536   1.795
  584SOL    HW2 1766   1.717   2.379   1.758
  585SOL     OW 1767   1.362   3.006   0.545
  585SOL    HW1 1768   1.445   2.977   0.497
  585SOL    HW2 1769   1.313   3.073   0.489
  586SOL     OW 1770   0.550   2.058   0.885
  586SOL    HW1 1771   0.545   2.053   0.985
  586SOL    HW2 1772   0.552   2.154   0.856
  587SOL     OW 1773   1.008   3.318   0.477
  587SOL    HW1 1774   0.962   3.390   0.425
  587SOL    HW2 1775   1.004   3.338   0.575
  588SOL     OW 1776   0.351   3.663   0.853
  588SOL    HW1 1777   0.401   3.577   0.859
  588SOL    HW2 1778   0.416   3.740   0.850
  589SOL     OW 1779   1.795   2.928   0.873
  589SOL    HW1 1780   1.733   2.913   0.797
  589SOL    HW2 1781   1.743   2.939   0.958
  590SOL     OW 1782   1.227   3.412   1.506
  590SOL    HW1 1783   1.233   3.335   1.570
  590SOL    HW2 1784   1.175   3.386   1.426
  591SOL     OW 1785   0.321   2.805   0.242
  591SOL    HW1 1786   0.403   2.844   0.200
  591SOL    HW2 1787   0.294   2.723   0.193
  592SOL     OW 1788   1.458   2.597   0.728
  592SOL    HW1 1789   1.453   2.532   0.803
  592SOL    HW2 1790   1.538   2.656   0.741
  593SOL     OW 1791   0.461   3.128   1.727
  593SOL    HW1 1792   0.411   3.129   1.641
  593SOL    HW2 1793   0.398   3.110   1.803
  594SOL     OW 1794   1.111   3.638   0.237
  594SOL    HW1 1795   1.051   3.576   0.287
  594SOL    HW2 1796   1.142   3.594   0.152
  595SOL     OW 1797   0.202   2.147   1.498
  595SOL    HW1 1798   0.122   2.207   1.485
  595SOL    HW2 1799   0.192   2.098   1.584
  596SOL     OW 1800   1.632   3.239   0.081
  596SOL    HW1 1801   1.600   3.333   0.071
  596SOL    HW2 1802   1.556   3.176   0.069
  597SOL     OW 1803   0.464   3.605   0.323
  597SOL    HW1 1804   0.497   3.644   0.409
  597SOL    HW2 1805   0.540   3.598   0.258
  598SOL     OW 1806   1.400   1.969   0.426
  598SOL    HW1 1807   1.376   1.932   0.336
  598SOL    HW2 1808   1.499   1.985   0.430
  599SOL     OW 1809   0.249   3.647   1.241
  599SOL    HW1 1810   0.306   3.582   1.291
  599SOL    HW2 1811   0.233   3.614   1.148
  600SOL     OW 1812   0.940   3.560   0.904
  600SOL    HW1 1813   1.020   3.503   0.925
  600SOL    HW2 1814   0.891   3.520   0.827
  601SOL     OW 1815   0.382   2.562   0.480
  601SOL    HW1 1816   0.427   2.472   0.477
  601SOL    HW2 1817   0.288   2.551   0.513
  602SOL     OW 1818   1.547   2.084   1.729
  602SOL    HW1 1819   1.542   2.121   1.821
  602SOL    HW2 1820   1.475   2.015   1.717
  603SOL     OW 1821   0.781   2.126   1.749
  603SOL    HW1 1822   0.848   2.065   1.792
  603SOL    HW2 1823   0.708   2.145   1.814
  604SOL     OW 1824   0.888   3.376   1.195
  604SOL    HW1 1825   0.865   3.351   1.101
  604SOL    HW2 1826   0.949   3.307   1.234
  605SOL     OW 1827   1.351   2.452   1.433
  605SOL    HW1 1828   1.379   2.409   1.518
  605SOL    HW2 1829   1.376   2.548   1.434
  606SOL     OW 1830   0.803   3.264   0.924
  606SOL    HW1 1831   0.893   3.278   0.882
  606SOL    HW2 1832   0.732   3.266   0.853
  607SOL     OW 1833   0.922   2.365   0.899
  607SOL    HW1 1834   0.897   2.356   0.803
  607SOL    HW2 1835   0.970   2.283   0.930
  608SOL     OW 1836   0.539   1.926   0.512
  608SOL    HW1 1837   0.458   1.927   0.570
  608SOL    HW2 1838   0.542   2.009   0.457
  609SOL     OW 1839   1.434   3.050   0.041
  609SOL    HW1 1840   1.466   2.974   0.098
  609SOL    HW2 1841   1.342   3.077   0.071
  610SOL     OW 1842   0.297   1.897   0.171
  610SOL    HW1 1843   0.346   1.981   0.150
  610SOL    HW2 1844   0.359   1.832   0.216
  611SOL     OW 1845   0.935   2.098   0.480
  611SOL    HW1 1846   0.887   2.139   0.402
  611SOL    HW2 1847   1.034   2.096   0.461
  612SOL     OW 1848   1.076   2.545   1.464
  612SOL    HW1 1849   0.996   2.484   1.467
  612SOL    HW2 1850   1.157   2.492   1.440
  613SOL     OW 1851   1.227   3.432   0.793
  613SOL    HW1 1852   1.248   3.506   0.728
  613SOL    HW2 1853   1.295   3.432   0.866
  614SOL     OW 1854   0.459   3.014   0.741
  614SOL    HW1 1855   0.388   2.987   0.806
  614SOL    HW2 1856   0.433   2.986   0.648
  615SOL     OW 1857   1.271   3.659   0.591
  615SOL    HW1 1858   1.315   3.723   0.527
  615SOL    HW2 1859   1.221   3.711   0.661
  616SOL     OW 1860   1.032   2.411   0.016
  616SOL    HW1 1861   0.991   2.493  -0.023
  616SOL    HW2 1862   1.096   2.437   0.089
  617SOL     OW 1863   0.078   2.418   1.386
  617SOL    HW1 1864   0.170   2.417   1.345
  617SOL    HW2 1865   0.072   2.492   1.453
  618SOL     OW 1866   0.561   2.084   1.147
  618SOL    HW1 1867   0.599   2.000   1.184
  618SOL    HW2 1868   0.473   2.103   1.191
  619SOL     OW 1869   0.866   2.316   0.642
  619SOL    HW1 1870   0.834   2.388   0.580
  619SOL    HW2 1871   0.890   2.235   0.589
  620SOL     OW 1872   1.017   1.901   0.753
  620SOL    HW1 1873   0.945   1.906   0.684
  620SOL    HW2 1874   0.993   1.832   0.822
  621SOL     OW 1875   1.429   3.035   0.867
  621SOL    HW1 1876   1.374   2.951   0.860
  621SOL    HW2 1877   1.455   3.064   0.775
  622SOL     OW 1878   1.466   2.452   0.992
  622SOL    HW1 1879   1.436   2.357   0.999
  622SOL    HW2 1880   1.539   2.468   1.058
  623SOL     OW 1881   1.857   2.695   0.377
  623SOL    HW1 1882   1.899   2.631   0.441
  623SOL    HW2 1883   1.819   2.644   0.299
  624SOL     OW 1884   0.488   3.247   0.174
  624SOL    HW1 1885   0.401   3.232   0.221
  624SOL    HW2 1886   0.471   3.273   0.079
  625SOL     OW 1887   1.664   3.142   0.657
  625SOL    HW1 1888   1.763   3.150   0.671
  625SOL    HW2 1889   1.619   3.226   0.688
  626SOL     OW 1890   1.390   2.437   0.078
  626SOL    HW1 1891   1.336   2.416   0.159
  626SOL    HW2 1892   1.481   2.396   0.087
  627SOL     OW 1893   0.527   2.118   0.328
  627SOL    HW1 1894   0.554   2.059   0.253
  627SOL    HW2 1895   0.527   2.213   0.297
  628SOL     OW 1896   1.754   3.085   1.588
  628SOL    HW1 1897   1.845   3.046   1.575
  628SOL    HW2 1898   1.762   3.181   1.612
  629SOL     OW 1899   1.064   3.209   1.340
  629SOL    HW1 1900   0.984   3.186   1.395
  629SOL    HW2 1901   1.147   3.183   1.389
  630SOL     OW 1902   1.592   3.491   1.625
  630SOL    HW1 1903   1.619   3.525   1.535
  630SOL    HW2 1904   1.671   3.453   1.671
  631SOL     OW 1905   1.111   3.057   1.100
  631SOL    HW1 1906   1.071   3.101   1.181
  631SOL    HW2 1907   1.070   3.094   1.017
  632SOL     OW 1908   1.638   2.961   1.079
  632SOL    HW1 1909   1.643   3.042   1.138
  632SOL    HW2 1910   1.552   2.963   1.028
  633SOL     OW 1911   0.915   1.951   1.402
  633SOL    HW1 1912   0.940   1.931   1.307
  633SOL    HW2 1913   0.987   2.007   1.444
  634SOL     OW 1914   0.980   2.978   1.719
  634SOL    HW1 1915   0.881   2.984   1.729
  634SOL    HW2 1916   1.003   2.898   1.663
  635SOL     OW 1917   0.705   2.912   0.368
  635SOL    HW1 1918   0.691   2.919   0.467
  635SOL    HW2 1919   0.789   2.861   0.350
  636SOL     OW 1920   0.410   2.675   1.251
  636SOL    HW1 1921   0.496   2.687   1.301
  636SOL    HW2 1922   0.368   2.588   1.278
  637SOL     OW 1923   1.274   2.248   1.262
  637SOL    HW1 1924   1.295   2.322   1.326
  637SOL    HW2 1925   1.185   2.265   1.219
  638SOL     OW 1926   0.064   3.426   1.331
  638SOL    HW1 1927   0.018   3.508   1.297
  638SOL    HW2 1928   0.162   3.445   1.340
  639SOL     OW 1929   0.367   2.962   0.501
  639SOL    HW1 1930   0.360   3.045   0.445
  639SOL    HW2 1931   0.371   2.882   0.441
  640SOL     OW 1932   0.566   2.399   0.865
  640SOL    HW1 1933   0.578   2.465   0.791
  640SOL    HW2 1934   0.612   2.433   0.948
  641SOL     OW 1935   1.252   3.210   0.388
  641SOL    HW1 1936   1.302   3.287   0.428
  641SOL    HW2 1937   1.157   3.212   0.420
  642SOL     OW 1938   1.272   3.307   1.142
  642SOL    HW1 1939   1.319   3.320   1.229
  642SOL    HW2 1940   1.206   3.233   1.151
  643SOL     OW 1941   1.582   2.501   0.472
  643SOL    HW1 1942   1.551   2.562   0.545
  643SOL    HW2 1943   1.632   2.553   0.403
  644SOL     OW 1944   0.354   3.372   1.329
  644SOL    HW1 1945   0.333   3.328   1.242
  644SOL    HW2 1946   0.451   3.398   1.332
  645SOL     OW 1947   0.402   2.613   1.598
  645SOL    HW1 1948   0.470   2.668   1.551
  645SOL    HW2 1949   0.442   2.525   1.625
  646SOL     OW 1950   1.587   2.641   1.670
  646SOL    HW1 1951   1.495   2.679   1.665
  646SOL    HW2 1952   1.647   2.688   1.605
  647SOL     OW 1953   1.013   1.967   1.770
  647SOL    HW1 1954   1.019   2.052   1.718
  647SOL    HW2 1955   1.045   1.891   1.713
  648SOL     OW 1956   0.504   1.912   1.740
  648SOL    HW1 1957   0.462   1.855   1.670
  648SOL    HW2 1958   0.438   1.981   1.772
  649SOL     OW 1959   0.573   2.732   1.029
  649SOL    HW1 1960   0.617   2.821   1.020
  649SOL    HW2 1961   0.510   2.732   1.106
  650SOL     OW 1962   1.360   2.724   1.045
  650SOL    HW1 1963   1.285   2.724   0.979
  650SOL    HW2 1964   1.397   2.632   1.054
  651SOL     OW 1965   1.209   2.387   0.275
  651SOL    HW1 1966   1.222   2.303   0.329
  651SOL    HW2 1967   1.180   2.461   0.335
  652SOL     OW 1968   0.307   2.075   1.231
  652SOL    HW1 1969   0.284   2.112   1.321
  652SOL    HW2 1970   0.277   1.980   1.225
  653SOL     OW 1971   0.037   3.172   1.282
  653SOL    HW1 1972   0.090   3.123   1.350
  653SOL    HW2 1973   0.059   3.270   1.287
  654SOL     OW 1974   0.732   2.496   1.064
  654SOL    HW1 1975   0.791   2.470   0.988
  654SOL    HW2 1976   0.704   2.592   1.053
  655SOL     OW 1977   1.728   2.797   1.854
  655SOL    HW1 1978   1.682   2.790   1.765
  655SOL    HW2 1979   1.666   2.841   1.920
  656SOL     OW 1980   0.307   1.925   0.618
  656SOL    HW1 1981   0.296   2.019   0.651
  656SOL    HW2 1982   0.302   1.862   0.695
  657SOL     OW 1983   1.622   2.229   0.374
  657SOL    HW1 1984   1.624   2.153   0.438
  657SOL    HW2 1985   1.574   2.306   0.414
  658SOL     OW 1986   1.023   2.628   0.966
  658SOL    HW1 1987   1.038   2.649   1.062
  658SOL    HW2 1988   0.993   2.533   0.957
  659SOL     OW 1989   0.980   3.435   1.700
  659SOL    HW1 1990   0.960   3.479   1.612
  659SOL    HW2 1991   1.019   3.344   1.684
  660SOL     OW 1992   1.859   3.380   1.605
  660SOL    HW1 1993   1.873   3.407   1.510
  660SOL    HW2 1994   1.942   3.402   1.658
  661SOL     OW 1995   0.350   2.760   1.804
  661SOL    HW1 1996   0.426   2.804   1.852
  661SOL    HW2 1997   0.385   2.713   1.722
  662SOL     OW 1998   1.540   2.136   0.125
  662SOL    HW1 1999   1.479   2.061   0.148
  662SOL    HW2 2000   1.562   2.188   0.208
  663SOL     OW 2001   1.303   2.700   0.042
  663SOL    HW1 2002   1.337   2.607   0.057
  663SOL    HW2 2003   1.321   2.727  -0.053
  664SOL     OW 2004   1.068   3.195   0.849
  664SOL    HW1 2005   1.075   3.111   0.794
  664SOL    HW2 2006   1.130   3.264   0.813
  665SOL     OW 2007   0.319   2.672   0.949
  665SOL    HW1 2008   0.412   2.708   0.954
  665SOL    HW2 2009   0.313   2.587   1.001
  666SOL     OW 2010   0.339   2.371   1.006
  666SOL    HW1 2011   0.287   2.288   0.989
  666SOL    HW2 2012   0.416   2.376   0.942
  667SOL     OW 2013   1.138   2.242   1.678
  667SOL    HW1 2014   1.093   2.305   1.742
  667SOL    HW2 2015   1.231   2.273   1.661
  668SOL     OW 2016   1.160   2.069   1.477
  668SOL    HW1 2017   1.160   2.133   1.554
  668SOL    HW2 2018   1.188   2.117   1.394
  669SOL     OW 2019   0.008   3.188   0.200
  669SOL    HW1 2020  -0.085   3.209   0.169
  669SOL    HW2 2021   0.018   3.089   0.213
  670SOL     OW 2022   0.088   3.663   0.927
  670SOL    HW1 2023   0.046   3.577   0.900
  670SOL    HW2 2024   0.182   3.666   0.893
  671SOL     OW 2025   0.504   3.430   0.910
  671SOL    HW1 2026   0.570   3.504   0.919
  671SOL    HW2 2027   0.548   3.351   0.868
  672SOL     OW 2028   1.002   2.658   1.238
  672SOL    HW1 2029   1.043   2.626   1.324
  672SOL    HW2 2030   0.906   2.631   1.235
  673SOL     OW 2031   0.040   2.406   1.114
  673SOL    HW1 2032   0.125   2.373   1.073
  673SOL    HW2 2033   0.053   2.421   1.212
  674SOL     OW 2034   0.189   2.382   1.722
  674SOL    HW1 2035   0.248   2.342   1.652
  674SOL    HW2 2036   0.131   2.453   1.681
  675SOL     OW 2037   1.369   2.812   1.660
  675SOL    HW1 2038   1.408   2.901   1.680
  675SOL    HW2 2039   1.379   2.792   1.563
  676SOL     OW 2040   0.815   2.434   0.325
  676SOL    HW1 2041   0.822   2.345   0.279
  676SOL    HW2 2042   0.721   2.468   0.317
  677SOL     OW 2043   1.657   2.466   1.206
  677SOL    HW1 2044   1.619   2.397   1.268
  677SOL    HW2 2045   1.739   2.430   1.162
  678SOL     OW 2046   0.252   3.426   1.744
  678SOL    HW1 2047   0.222   3.483   1.820
  678SOL    HW2 2048   0.245   3.329   1.770
  679SOL     OW 2049   0.671   2.326   1.269
  679SOL    HW1 2050   0.637   2.237   1.239
  679SOL    HW2 2051   0.697   2.380   1.189
  680SOL     OW 2052   0.930   3.540   1.465
  680SOL    HW1 2053   0.906   3.522   1.370
  680SOL    HW2 2054   0.960   3.634   1.475
  681SOL     OW 2055   0.473   2.362   0.191
  681SOL    HW1 2056   0.534   2.442   0.195
  681SOL    HW2 2057   0.378   2.393   0.198
  682SOL     OW 2058   0.159   2.999   1.466
  682SOL    HW1 2059   0.181   2.938   1.542
  682SOL    HW2 2060   0.169   2.950   1.380
  683SOL     OW 2061   1.347   2.921   1.234
  683SOL    HW1 2062   1.371   2.858   1.160
  683SOL    HW2 2063   1.257   2.961   1.216
  684SOL     OW 2064   1.302   2.717   0.309
  684SOL    HW1 2065   1.216   2.686   0.351
  684SOL    HW2 2066   1.298   2.703   0.210
  685SOL     OW 2067   1.759   3.609   1.154
  685SOL    HW1 2068   1.820   3.639   1.081
  685SOL    HW2 2069   1.721   3.520   1.132
  686SOL     OW 2070   1.252   3.593   1.128
  686SOL    HW1 2071   1.336   3.598   1.074
  686SOL    HW2 2072   1.229   3.497   1.146
  687SOL     OW 2073   0.083   3.120   1.022
  687SOL    HW1 2074   0.078   3.119   1.122
  687SOL    HW2 2075   0.000   3.079   0.984
  688SOL     OW 2076   0.688   3.524   1.716
  688SOL    HW1 2077   0.632   3.605   1.725
  688SOL    HW2 2078   0.740   3.528   1.630
  689SOL     OW 2079   0.903   1.948   0.133
  689SOL    HW1 2080   0.954   1.949   0.047
  689SOL    HW2 2081   0.959   1.906   0.204
  690SOL     OW 2082   1.726   1.997   0.523
  690SOL    HW1 2083   1.799   1.980   0.456
  690SOL    HW2 2084   1.695   1.910   0.561
  691SOL     OW 2085   1.388   3.435   0.477
  691SOL    HW1 2086   1.455   3.447   0.403
  691SOL    HW2 2087   1.348   3.524   0.500
  692SOL     OW 2088   0.130   3.656   1.851
  692SOL    HW1 2089   0.089   3.582   1.904
  692SOL    HW2 2090   0.194   3.707   1.909
  693SOL     OW 2091   1.280   2.789   0.672
  693SOL    HW1 2092   1.340   2.708   0.674
  693SOL    HW2 2093   1.320   2.858   0.612
  694SOL     OW 2094   0.830   3.135   1.422
  694SOL    HW1 2095   0.825   3.168   1.517
  694SOL    HW2 2096   0.744   3.154   1.376
  695SOL     OW 2097   0.672   3.478   0.154
  695SOL    HW1 2098   0.681   3.488   0.055
  695SOL    HW2 2099   0.632   3.389   0.175
  696SOL     OW 2100   1.650   3.582   1.394
  696SOL    HW1 2101   1.703   3.592   1.310
  696SOL    HW2 2102   1.623   3.672   1.428
  697SOL     OW 2103   1.841   2.037   0.963
  697SOL    HW1 2104   1.880   1.952   0.927
  697SOL    HW2 2105   1.743   2.039   0.944
  698SOL     OW 2106   0.263   2.188   0.720
  698SOL    HW1 2107   0.184   2.239   0.686
  698SOL    HW2 2108   0.254   2.173   0.818
  699SOL     OW 2109   1.194   3.474   0.031
  699SOL    HW1 2110   1.200   3.381   0.068
  699SOL    HW2 2111   1.135   3.474  -0.049
  700SOL     OW 2112   0.822   2.864   1.372
  700SOL    HW1 2113   0.862   2.863   1.280
  700SOL    HW2 2114   0.832   2.956   1.412
  701SOL     OW 2115   0.916   2.772   0.291
  701SOL    HW1 2116   0.979   2.810   0.223
  701SOL    HW2 2117   0.956   2.689   0.330
  702SOL     OW 2118   1.504   3.469   0.044
  702SOL    HW1 2119   1.412   3.506   0.051
  702SOL    HW2 2120   1.542   3.489  -0.046
  703SOL     OW 2121   0.372   3.150   1.490
  703SOL    HW1 2122   0.359   3.243   1.456
  703SOL    HW2 2123   0.288   3.098   1.477
  704SOL     OW 2124   1.614   3.154   1.289
  704SOL    HW1 2125   1.674   3.157   1.369
  704SOL    HW2 2126   1.539   3.218   1.302
  705SOL     OW 2127   1.039   2.960   0.696
  705SOL    HW1 2128   0.969   2.913   0.750
  705SOL    HW2 2129   1.098   2.892   0.653
  706SOL     OW 2130   1.014   2.098   0.971
  706SOL    HW1 2131   1.006   2.062   0.878
  706SOL    HW2 2132   1.012   2.022   1.036
  707SOL     OW 2133   0.590   3.349   0.491
  707SOL    HW1 2134   0.632   3.291   0.421
  707SOL    HW2 2135   0.546   3.428   0.447
  708SOL     OW 2136   1.709   2.247   1.381
  708SOL    HW1 2137   1.782   2.316   1.385
  708SOL    HW2 2138   1.737   2.172   1.322
  709SOL     OW 2139   0.255   3.210   0.290
  709SOL    HW1 2140   0.159   3.211   0.263
  709SOL    HW2 2141   0.267   3.263   0.374
  710SOL     OW 2142   0.105   2.875   1.726
  710SOL    HW1 2143   0.028   2.842   1.780
  710SOL    HW2 2144   0.190   2.845   1.768
  711SOL     OW 2145   0.672   2.065   1.489
  711SOL    HW1 2146   0.762   2.049   1.449
  711SOL    HW2 2147   0.680   2.070   1.588
  712SOL     OW 2148   0.075   2.207   0.033
  712SOL    HW1 2149  -0.017   2.179   0.004
  712SOL    HW2 2150   0.106   2.284  -0.023
  713SOL     OW 2151   1.440   2.718   1.398
  713SOL    HW1 2152   1.383   2.770   1.335
  713SOL    HW2 2153   1.536   2.730   1.374
  714SOL     OW 2154   0.072   2.028   0.318
  714SOL    HW1 2155   0.055   2.111   0.264
  714SOL    HW2 2156   0.162   1.991   0.296
  715SOL     OW 2157   1.183   3.197   0.119
  715SOL    HW1 2158   1.084   3.186   0.121
  715SOL    HW2 2159   1.217   3.212   0.212
  716SOL     OW 2160   0.613   2.704   1.431
  716SOL    HW1 2161   0.669   2.785   1.414
  716SOL    HW2 2162   0.672   2.624   1.434
  717SOL     OW 2163   1.493   3.629   0.959
  717SOL    HW1 2164   1.526   3.693   0.890
  717SOL    HW2 2165   1.559   3.623   1.034
  718SOL     OW 2166   0.716   2.427   1.708
  718SOL    HW1 2167   0.735   2.492   1.782
  718SOL    HW2 2168   0.776   2.347   1.717
  719SOL     OW 2169   1.450   3.082   1.633
  719SOL    HW1 2170   1.441   3.072   1.732
  719SOL    HW2 2171   1.546   3.075   1.607
  720SOL     OW 2172   0.390   3.603   1.560
  720SOL    HW1 2173   0.299   3.644   1.558
  720SOL    HW2 2174   0.383   3.509   1.592
  721SOL     OW 2175   1.674   2.745   1.254
  721SOL    HW1 2176   1.647   2.656   1.217
  721SOL    HW2 2177   1.675   2.813   1.181
  722SOL     OW 2178   1.225   2.187   0.449
  722SOL    HW1 2179   1.290   2.113   0.438
  722SOL    HW2 2180   1.245   2.237   0.533
  723SOL     OW 2181   0.594   2.607   0.652
  723SOL    HW1 2182   0.644   2.692   0.633
  723SOL    HW2 2183   0.506   2.609   0.604
  724SOL     OW 2184   1.777   2.204   1.642
  724SOL    HW1 2185   1.760   2.235   1.548
  724SOL    HW2 2186   1.693   2.167   1.680
  725SOL     OW 2187   1.730   2.796   1.517
  725SOL    HW1 2188   1.768   2.887   1.532
  725SOL    HW2 2189   1.722   2.779   1.418
  726SOL     OW 2190   0.859   3.236   0.016
  726SOL    HW1 2191   0.813   3.251   0.104
  726SOL    HW2 2192   0.903   3.321  -0.014
  727SOL     OW 2193   0.661   3.652   0.953
  727SOL    HW1 2194   0.615   3.740   0.940
  727SOL    HW2 2195   0.760   3.664   0.946
  728SOL     OW 2196   0.859   2.818   0.861
  728SOL    HW1 2197   0.913   2.749   0.909
  728SOL    HW2 2198   0.827   2.887   0.927
  729SOL     OW 2199   1.083   2.846   0.087
  729SOL    HW1 2200   1.060   2.899   0.005
  729SOL    HW2 2201   1.164   2.790   0.068
  730SOL     OW 2202   1.861   3.431   0.851
  730SOL    HW1 2203   1.790   3.419   0.781
  730SOL    HW2 2204   1.862   3.352   0.911
  731SOL     OW 2205   0.221   3.176   1.844
  731SOL    HW1 2206   0.156   3.103   1.823
  731SOL    HW2 2207   0.225   3.190   1.942
  732SOL     OW 2208   0.079   3.102   0.653
  732SOL    HW1 2209   0.078   3.055   0.741
  732SOL    HW2 2210   0.161   3.074   0.602
  733SOL     OW 2211   0.672   3.253   1.624
  733SOL    HW1 2212   0.594   3.203   1.662
  733SOL    HW2 2213   0.669   3.348   1.655
  734SOL     OW 2214   1.824   2.054   1.227
  734SOL    HW1 2215   1.820   1.964   1.271
  734SOL    HW2 2216   1.827   2.043   1.128
  735SOL     OW 2217   0.428   2.286   0.520
  735SOL    HW1 2218   0.458   2.214   0.458
  735SOL    HW2 2219   0.389   2.246   0.603
  736SOL     OW 2220   1.705   3.349   1.104
  736SOL    HW1 2221   1.612   3.324   1.077
  736SOL    HW2 2222   1.731   3.299   1.186
  737SOL     OW 2223   0.317   2.409   1.280
  737SOL    HW1 2224   0.355   2.350   1.352
  737SOL    HW2 2225   0.357   2.383   1.192
  738SOL     OW 2226   0.812   3.448   0.687
  738SOL    HW1 2227   0.844   3.458   0.593
  738SOL    HW2 2228   0.733   3.386   0.689
  739SOL     OW 2229   1.424   2.076   1.112
  739SOL    HW1 2230   1.476   2.011   1.167
  739SOL    HW2 2231   1.375   2.139   1.173
  740SOL     OW 2232   1.001   1.896   1.154
  740SOL    HW1 2233   0.938   1.824   1.123
  740SOL    HW2 2234   1.094   1.860   1.154
  741SOL     OW 2235   0.770   3.192   0.301
  741SOL    HW1 2236   0.724   3.105   0.318
  741SOL    HW2 2237   0.861   3.189   0.342
  742SOL     OW 2238   0.618   3.429   1.284
  742SOL    HW1 2239   0.613   3.511   1.341
  742SOL    HW2 2240   0.707   3.426   1.239
  743SOL     OW 2241   1.352   1.914   0.168
  743SOL    HW1 2242   1.387   1.873   0.084
  743SOL    HW2 2243   1.262   1.876   0.188
  744SOL     OW 2244   1.300   2.315   0.691
  744SOL    HW1 2245   1.241   2.395   0.695
  744SOL    HW2 2246   1.315   2.280   0.784
  745SOL     OW 2247   1.593   2.083   0.882
  745SOL    HW1 2248   1.509   2.082   0.936
  745SOL    HW2 2249   1.595   2.166   0.826
  746SOL     OW 2250   0.039   2.939   0.300
  746SOL    HW1 2251   0.138   2.928   0.291
  746SOL    HW2 2252  -0.001   2.853   0.332
  747SOL     OW 2253   0.875   3.508   0.337
  747SOL    HW1 2254   0.798   3.473   0.283
  747SOL    HW2 2255   0.843   3.579   0.399
  748SOL     OW 2256   0.230   2.490   1.975
  748SOL    HW1 2257   0.137   2.488   2.012
  748SOL    HW2 2258   0.231   2.451   1.883
  749SOL     OW 2259   0.225   2.137   2.858
  749SOL    HW1 2260   0.260   2.120   2.950
  749SOL    HW2 2261   0.137   2.092   2.846
  750SOL     OW 2262   0.019   2.230   2.509
  750SOL    HW1 2263  -0.063   2.273   2.548
  750SOL    HW2 2264  -0.009   2.157   2.446
  751SOL     OW 2265   0.569   3.137   3.027
  751SOL    HW1 2266   0.476   3.130   2.990
  751SOL    HW2 2267   0.580   3.226   3.071
  752SOL     OW 2268   1.555   3.373   2.565
  752SOL    HW1 2269   1.498   3.357   2.646
  752SOL    HW2 2270   1.496   3.383   2.485
  753SOL     OW 2271   1.135   2.565   2.579
  753SOL    HW1 2272   1.192   2.643   2.554
  753SOL    HW2 2273   1.075   2.591   2.655
  754SOL     OW 2274   1.755   2.469   2.093
  754SOL    HW1 2275   1.743   2.456   1.994
  754SOL    HW2 2276   1.725   2.388   2.142
  755SOL     OW 2277   0.768   3.006   2.885
  755SOL    HW1 2278   0.690   3.023   2.945
  755SOL    HW2 2279   0.802   3.093   2.849
  756SOL     OW 2280   0.850   2.660   3.685
  756SOL    HW1 2281   0.846   2.736   3.750
  756SOL    HW2 2282   0.872   2.696   3.594
  757SOL     OW 2283   0.685   2.874   2.527
  757SOL    HW1 2284   0.754   2.858   2.597
  757SOL    HW2 2285   0.612   2.931   2.565
  758SOL     OW 2286   0.686   3.023   3.665
  758SOL    HW1 2287   0.746   3.102   3.679
  758SOL    HW2 2288   0.600   3.054   3.624
  759SOL     OW 2289   0.335   3.297   2.923
  759SOL    HW1 2290   0.257   3.266   2.870
  759SOL    HW2 2291   0.393   3.355   2.866
  760SOL     OW 2292   1.460   3.367   3.201
  760SOL    HW1 2293   1.484   3.461   3.227
  760SOL    HW2 2294   1.444   3.313   3.283
  761SOL     OW 2295   0.438   2.254   3.361
  761SOL    HW1 2296   0.520   2.198   3.370
  761SOL    HW2 2297   0.357   2.196   3.365
  762SOL     OW 2298   1.603   2.309   2.599
  762SOL    HW1 2299   1.529   2.355   2.549
  762SOL    HW2 2300   1.654   2.377   2.652
  763SOL     OW 2301   0.231   3.575   2.345
  763SOL    HW1 2302   0.265   3.652   2.399
  763SOL    HW2 2303   0.275   3.575   2.255
  764SOL     OW 2304   1.127   3.203   3.552
  764SOL    HW1 2305   1.174   3.203   3.640
  764SOL    HW2 2306   1.079   3.116   3.541
  765SOL     OW 2307   0.230   3.296   2.400
  765SOL    HW1 2308   0.204   3.392   2.400
  765SOL    HW2 2309   0.159   3.242   2.445
  766SOL     OW 2310   0.240   2.953   2.748
  766SOL    HW1 2311   0.254   2.869   2.800
  766SOL    HW2 2312   0.185   3.017   2.803
  767SOL     OW 2313   0.620   3.648   3.301
  767SOL    HW1 2314   0.528   3.631   3.336
  767SOL    HW2 2315   0.648   3.740   3.327
  768SOL     OW 2316   0.606   2.826   1.985
  768SOL    HW1 2317   0.613   2.910   1.931
  768SOL    HW2 2318   0.652   2.839   2.073
  769SOL     OW 2319   1.594   1.976   3.342
  769SOL    HW1 2320   1.576   2.043   3.270
  769SOL    HW2 2321   1.591   2.022   3.431
  770SOL     OW 2322   0.122   2.505   2.425
  770SOL    HW1 2323   0.077   2.417   2.442
  770SOL    HW2 2324   0.121   2.559   2.509
  771SOL     OW 2325   1.842   3.629   2.221
  771SOL    HW1 2326   1.896   3.600   2.301
  771SOL    HW2 2327   1.872   3.719   2.192
  772SOL     OW 2328   0.027   3.458   1.979
  772SOL    HW1 2329   0.008   3.362   2.000
  772SOL    HW2 2330  -0.006   3.516   2.054
  773SOL     OW 2331   1.689   2.784   2.474
  773SOL    HW1 2332   1.784   2.755   2.482
  773SOL    HW2 2333   1.681   2.849   2.399
  774SOL     OW 2334   1.641   2.970   2.294
  774SOL    HW1 2335   1.727   2.972   2.242
  774SOL    HW2 2336   1.655   3.017   2.382
  775SOL     OW 2337   0.113   2.599   3.459
  775SOL    HW1 2338   0.201   2.586   3.504
  775SOL    HW2 2339   0.100   2.696   3.437
  776SOL     OW 2340   0.613   3.227   2.588
  776SOL    HW1 2341   0.564   3.140   2.597
  776SOL    HW2 2342   0.590   3.270   2.501
  777SOL     OW 2343   1.293   3.090   3.285
  777SOL    HW1 2344   1.330   3.017   3.227
  777SOL    HW2 2345   1.345   3.095   3.370
  778SOL     OW 2346   0.809   1.866   2.364
  778SOL    HW1 2347   0.849   1.957   2.355
  778SOL    HW2 2348   0.709   1.874   2.370
  779SOL     OW 2349   0.197   2.838   3.126
  779SOL    HW1 2350   0.286   2.793   3.112
  779SOL    HW2 2351   0.124   2.773   3.107
  780SOL     OW 2352   1.525   2.861   2.052
  780SOL    HW1 2353   1.462   2.785   2.065
  780SOL    HW2 2354   1.573   2.879   2.138
  781SOL     OW 2355   1.187   3.654   3.478
  781SOL    HW1 2356   1.211   3.714   3.402
  781SOL    HW2 2357   1.194   3.559   3.448
  782SOL     OW 2358   0.317   2.113   3.663
  782SOL    HW1 2359   0.388   2.184   3.669
  782SOL    HW2 2360   0.229   2.152   3.691
  783SOL     OW 2361   1.466   3.279   2.815
  783SOL    HW1 2362   1.407   3.285   2.895
  783SOL    HW2 2363   1.451   3.191   2.769
  784SOL     OW 2364   1.667   3.576   2.434
  784SOL    HW1 2365   1.626   3.553   2.346
  784SOL    HW2 2366   1.649   3.502   2.499
  785SOL     OW 2367   0.598   2.591   2.132
  785SOL    HW1 2368   0.622   2.660   2.064
  785SOL    HW2 2369   0.520   2.624   2.186
  786SOL     OW 2370   1.281   2.207   2.806
  786SOL    HW1 2371   1.195   2.157   2.793
  786SOL    HW2 2372   1.343   2.153   2.862
  787SOL     OW 2373   1.576   3.524   2.169
  787SOL    HW1 2374   1.665   3.570   2.172
  787SOL    HW2 2375   1.555   3.500   2.074
  788SOL     OW 2376   0.807   2.467   3.327
  788SOL    HW1 2377   0.760   2.464   3.416
  788SOL    HW2 2378   0.756   2.412   3.261
  789SOL     OW 2379   1.394   2.331   3.536
  789SOL    HW1 2380   1.374   2.374   3.624
  789SOL    HW2 2381   1.472   2.269   3.545
  790SOL     OW 2382   0.973   2.752   3.434
  790SOL    HW1 2383   1.019   2.668   3.405
  790SOL    HW2 2384   0.917   2.786   3.359
  791SOL     OW 2385   0.991   2.272   3.104
  791SOL    HW1 2386   0.914   2.306   3.158
  791SOL    HW2 2387   0.957   2.221   3.025
  792SOL     OW 2388   1.041   2.563   2.291
  792SOL    HW1 2389   1.067   2.559   2.387
  792SOL    HW2 2390   0.956   2.512   2.277
  793SOL     OW 2391   0.076   2.673   2.651
  793SOL    HW1 2392   0.175   2.661   2.660
  793SOL    HW2 2393   0.052   2.768   2.672
  794SOL     OW 2394   0.130   3.683   3.433
  794SOL    HW1 2395   0.120   3.668   3.532
  794SOL    HW2 2396   0.044   3.719   3.397
  795SOL     OW 2397   0.865   2.210   2.057
  795SOL    HW1 2398   0.924   2.273   2.008
  795SOL    HW2 2399   0.884   2.116   2.028
  796SOL     OW 2400   1.719   2.447   3.693
  796SOL    HW1 2401   1.693   2.536   3.657
  796SOL    HW2 2402   1.717   2.379   3.620
  797SOL     OW 2403   1.362   3.006   2.407
  797SOL    HW1 2404   1.445   2.977   2.359
  797SOL    HW2 2405   1.313   3.073   2.351
  798SOL     OW 2406   0.550   2.058   2.747
  798SOL    HW1 2407   0.545   2.053   2.847
  798SOL    HW2 2408   0.552   2.154   2.718
  799SOL     OW 2409   1.008   3.318   2.339
  799SOL    HW1 2410   0.962   3.390   2.287
  799SOL    HW2 2411   1.004   3.338   2.437
  800SOL     OW 2412   0.351   3.663   2.715
  800SOL    HW1 2413   0.401   3.577   2.721
  800SOL    HW2 2414   0.416   3.740   2.712
  801SOL     OW 2415   1.795   2.928   2.735
  801SOL    HW1 2416   1.733   2.913   2.659
  801SOL    HW2 2417   1.743   2.939   2.820
  802SOL     OW 2418   1.227   3.412   3.368
  802SOL    HW1 2419   1.233   3.335   3.432
  802SOL    HW2 2420   1.175   3.386   3.288
  803SOL     OW 2421   0.321   2.805   2.104
  803SOL    HW1 2422   0.403   2.844   2.062
  803SOL    HW2 2423   0.294   2.723   2.055
  804SOL     OW 2424   1.458   2.597   2.590
  804SOL    HW1 2425   1.453   2.532   2.665
  804SOL    HW2 2426   1.538   2.656   2.603
  805SOL     OW 2427   0.461   3.128   3.589
  805SOL    HW1 2428   0.411   3.129   3.503
  805SOL    HW2 2429   0.398   3.110   3.665
  806SOL     OW 2430   1.111   3.638   2.099
  806SOL    HW1 2431   1.051   3.576   2.149
  806SOL    HW2 2432   1.142   3.594   2.014
  807SOL     OW 2433   0.202   2.147   3.360
  807SOL    HW1 2434   0.122   2.207   3.347
  807SOL    HW2 2435   0.192   2.098   3.446
  808SOL     OW 2436   1.632   3.239   1.943
  808SOL    HW1 2437   1.600   3.333   1.933
  808SOL    HW2 2438   1.556   3.176   1.931
  809SOL     OW 2439   0.464   3.605   2.185
  809SOL    HW1 2440   0.497   3.644   2.271
  809SOL    HW2 2441   0.540   3.598   2.120
  810SOL     OW 2442   1.400   1.969   2.288
  810SOL    HW1 2443   1.376   1.932   2.198
  810SOL    HW2 2444   1.499   1.985   2.292
  811SOL     OW 2445   0.249   3.647   3.103
  811SOL    HW1 2446   0.306   3.582   3.153
  811SOL    HW2 2447   0.233   3.614   3.010
  812SOL     OW 2448   0.940   3.560   2.766
  812SOL    HW1 2449   1.020   3.503   2.787
  812SOL    HW2 2450   0.891   3.520   2.689
  813SOL     OW 2451   0.382   2.562   2.342
  813SOL    HW1 2452   0.427   2.472   2.339
  813SOL    HW2 2453   0.288   2.551   2.375
  814SOL     OW 2454   1.547   2.084   3.591
  814SOL    HW1 2455   1.542   2.121   3.683
  814SOL    HW2 2456   1.475   2.015   3.579
  815SOL     OW 2457   0.614   1.984   1.979
  815SOL    HW1 2458   0.712   1.962   1.986
  815SOL    HW2 2459   0.583   1.967   1.886
  816SOL     OW 2460   0.781   2.126   3.611
  816SOL    HW1 2461   0.848   2.065   3.654
  816SOL    HW2 2462   0.708   2.145   3.676
  817SOL     OW 2463   0.888   3.376   3.057
  817SOL    HW1 2464   0.865   3.351   2.963
  817SOL    HW2 2465   0.949   3.307   3.096
  818SOL     OW 2466   1.351   2.452   3.295
  818SOL    HW1 2467   1.379   2.409   3.380
  818SOL    HW2 2468   1.376   2.548   3.296
  819SOL     OW 2469   0.803   3.264   2.786
  819SOL    HW1 2470   0.893   3.278   2.744
  819SOL    HW2 2471   0.732   3.266   2.715
  820SOL     OW 2472   0.922   2.365   2.761
  820SOL    HW1 2473   0.897   2.356   2.665
  820SOL    HW2 2474   0.970   2.283   2.792
  821SOL     OW 2475   0.539   1.926   2.374
  821SOL    HW1 2476   0.458   1.927   2.432
  821SOL    HW2 2477   0.542   2.009   2.319
  822SOL     OW 2478   1.434   3.050   1.903
  822SOL    HW1 2479   1.466   2.974   1.960
  822SOL    HW2 2480   1.342   3.077   1.933
  823SOL     OW 2481   0.297   1.897   2.033
  823SOL    HW1 2482   0.346   1.981   2.012
  823SOL    HW2 2483   0.359   1.832   2.078
  824SOL     OW 2484   0.935   2.098   2.342
  824SOL    HW1 2485   0.887   2.139   2.264
  824SOL    HW2 2486   1.034   2.096   2.323
  825SOL     OW 2487   1.076   2.545   3.326
  825SOL    HW1 2488   0.996   2.484   3.329
  825SOL    HW2 2489   1.157   2.492   3.302
  826SOL     OW 2490   1.227   3.432   2.655
  826SOL    HW1 2491   1.248   3.506   2.590
  826SOL    HW2 2492   1.295   3.432   2.728
  827SOL     OW 2493   0.459   3.014   2.603
  827SOL    HW1 2494   0.388   2.987   2.668
  827SOL    HW2 2495   0.433   2.986   2.510
  828SOL     OW 2496   1.271   3.659   2.453
  828SOL    HW1 2497   1.315   3.723   2.389
  828SOL    HW2 2498   1.221   3.711   2.523
  829SOL     OW 2499   1.032   2.411   1.878
  829SOL    HW1 2500   0.991   2.493   1.839
  829SOL    HW2 2501   1.096   2.437   1.951
  830SOL     OW 2502   0.078   2.418   3.248
  830SOL    HW1 2503   0.170   2.417   3.207
  830SOL    HW2 2504   0.072   2.492   3.315
  831SOL     OW 2505   0.561   2.084   3.009
  831SOL    HW1 2506   0.599   2.000   3.046
  831SOL    HW2 2507   0.473   2.103   3.053
  832SOL     OW 2508   0.866   2.316   2.504
  832SOL    HW1 2509   0.834   2.388   2.442
  832SOL    HW2 2510   0.890   2.235   2.451
  833SOL     OW 2511   1.017   1.901   2.615
  833SOL    HW1 2512   0.945   1.906   2.546
  833SOL    HW2 2513   0.993   1.832   2.684
  834SOL     OW 2514   1.429   3.035   2.729
  834SOL    HW1 2515   1.374   2.951   2.722
  834SOL    HW2 2516   1.455   3.064   2.637
  835SOL     OW 2517   1.466   2.452   2.854
  835SOL    HW1 2518   1.436   2.357   2.861
  835SOL    HW2 2519   1.539   2.468   2.920
  836SOL     OW 2520   1.857   2.695   2.239
  836SOL    HW1 2521   1.899   2.631   2.303
  836SOL    HW2 2522   1.819   2.644   2.161
  837SOL     OW 2523   0.488   3.247   2.036
  837SOL    HW1 2524   0.401   3.232   2.083
  837SOL    HW2 2525   0.471   3.273   1.941
  838SOL     OW 2526   1.664   3.142   2.519
  838SOL    HW1 2527   1.763   3.150   2.533
  838SOL    HW2 2528   1.619   3.226   2.550
  839SOL     OW 2529   1.390   2.437   1.940
  839SOL    HW1 2530   1.336   2.416   2.021
  839SOL    HW2 2531   1.481   2.396   1.949
  840SOL     OW 2532   0.527   2.118   2.190
  840SOL    HW1 2533   0.554   2.059   2.115
  840SOL    HW2 2534   0.527   2.213   2.159
  841SOL     OW 2535   1.754   3.085   3.450
  841SOL    HW1 2536   1.845   3.046   3.437
  841SOL    HW2 2537   1.762   3.181   3.474
  842SOL     OW 2538   1.064   3.209   3.202
  842SOL    HW1 2539   0.984   3.186   3.257
  842SOL    HW2 2540   1.147   3.183   3.251
  843SOL     OW 2541   1.592   3.491   3.487
  843SOL    HW1 2542   1.619   3.525   3.397
  843SOL    HW2 2543   1.671   3.453   3.533
  844SOL     OW 2544   1.111   3.057   2.962
  844SOL    HW1 2545   1.071   3.101   3.043
  844SOL    HW2 2546   1.070   3.094   2.879
  845SOL     OW 2547   1.638   2.961   2.941
  845SOL    HW1 2548   1.643   3.042   3.000
  845SOL    HW2 2549   1.552   2.963   2.890
  846SOL     OW 2550   0.915   1.951   3.264
  846SOL    HW1 2551   0.940   1.931   3.169
  846SOL    HW2 2552   0.987   2.007   3.306
  847SOL     OW 2553   0.980   2.978   3.581
  847SOL    HW1 2554   0.881   2.984   3.591
  847SOL    HW2 2555   1.003   2.898   3.525
  848SOL     OW 2556   0.705   2.912   2.230
  848SOL    HW1 2557   0.691   2.919   2.329
  848SOL    HW2 2558   0.789   2.861   2.212
  849SOL     OW 2559   0.410   2.675   3.113
  849SOL    HW1 2560   0.496   2.687   3.163
  849SOL    HW2 2561   0.368   2.588   3.140
  850SOL     OW 2562   1.274   2.248   3.124
  850SOL    HW1 2563   1.295   2.322   3.188
  850SOL    HW2 2564   1.185   2.265   3.081
  851SOL     OW 2565   0.064   3.426   3.193
  851SOL    HW1 2566   0.018   3.508   3.159
  851SOL    HW2 2567   0.162   3.445   3.202
  852SOL     OW 2568   0.367   2.962   2.363
  852SOL    HW1 2569   0.360   3.045   2.307
  852SOL    HW2 2570   0.371   2.882   2.303
  853SOL     OW 2571   0.566   2.399   2.727
  853SOL    HW1 2572   0.578   2.465   2.653
  853SOL    HW2 2573   0.612   2.433   2.810
  854SOL     OW 2574   1.252   3.210   2.250
  854SOL    HW1 2575   1.302   3.287   2.290
  854SOL    HW2 2576   1.157   3.212   2.282
  855SOL     OW 2577   1.272   3.307   3.004
  855SOL    HW1 2578   1.319   3.320   3.091
  855SOL    HW2 2579   1.206   3.233   3.013
  856SOL     OW 2580   1.582   2.501   2.334
  856SOL    HW1 2581   1.551   2.562   2.407
  856SOL    HW2 2582   1.632   2.553   2.265
  857SOL     OW 2583   0.354   3.372   3.191
  857SOL    HW1 2584   0.333   3.328   3.104
  857SOL    HW2 2585   0.451   3.398   3.194
  858SOL     OW 2586   0.402   2.613   3.460
  858SOL    HW1 2587   0.470   2.668   3.413
  858SOL    HW2 2588   0.442   2.525   3.487
  859SOL     OW 2589   1.587   2.641   3.532
  859SOL    HW1 2590   1.495   2.679   3.527
  859SOL    HW2 2591   1.647   2.688   3.467
  860SOL     OW 2592   1.013   1.967   3.632
  860SOL    HW1 2593   1.019   2.052   3.580
  860SOL    HW2 2594   1.045   1.891   3.575
  861SOL     OW 2595   0.504   1.912   3.602
  861SOL    HW1 2596   0.462   1.855   3.532
  861SOL    HW2 2597   0.438   1.981   3.634
  862SOL     OW 2598   0.573   2.732   2.891
  862SOL    HW1 2599   0.617   2.821   2.882
  862SOL    HW2 2600   0.510   2.732   2.968
  863SOL     OW 2601   1.360   2.724   2.907
  863SOL    HW1 2602   1.285   2.724   2.841
  863SOL    HW2 2603   1.397   2.632   2.916
  864SOL     OW 2604   1.209   2.387   2.137
  864SOL    HW1 2605   1.222   2.303   2.191
  864SOL    HW2 2606   1.180   2.461   2.197
  865SOL     OW 2607   0.307   2.075   3.093
  865SOL    HW1 2608   0.284   2.112   3.183
  865SOL    HW2 2609   0.277   1.980   3.087
  866SOL     OW 2610   0.037   3.172   3.144
  866SOL    HW1 2611   0.090   3.123   3.212
  866SOL    HW2 2612   0.059   3.270   3.149
  867SOL     OW 2613   0.732   2.496   2.926
  867SOL    HW1 2614   0.791   2.470   2.850
  867SOL    HW2 2615   0.704   2.592   2.915
  868SOL     OW 2616   1.728   2.797   3.716
  868SOL    HW1 2617   1.682   2.790   3.627
  868SOL    HW2 2618   1.666   2.841   3.782
  869SOL     OW 2619   0.307   1.925   2.480
  869SOL    HW1 2620   0.296   2.019   2.513
  869SOL    HW2 2621   0.302   1.862   2.557
  870SOL     OW 2622   1.622   2.229   2.236
  870SOL    HW1 2623   1.624   2.153   2.300
  870SOL    HW2 2624   1.574   2.306   2.276
  871SOL     OW 2625   1.023   2.628   2.828
  871SOL    HW1 2626   1.038   2.649   2.924
  871SOL    HW2 2627   0.993   2.533   2.819
  872SOL     OW 2628   0.980   3.435   3.562
  872SOL    HW1 2629   0.960   3.479   3.474
  872SOL    HW2 2630   1.019   3.344   3.546
  873SOL     OW 2631   1.859   3.380   3.467
  873SOL    HW1 2632   1.873   3.407   3.372
  873SOL    HW2 2633   1.942   3.402   3.520
  874SOL     OW 2634   0.350   2.760   3.666
  874SOL    HW1 2635   0.426   2.804   3.714
  874SOL    HW2 2636   0.385   2.713   3.584
  875SOL     OW 2637   1.540   2.136   1.987
  875SOL    HW1 2638   1.479   2.061   2.010
  875SOL    HW2 2639   1.562   2.188   2.070
  876SOL     OW 2640   1.303   2.700   1.904
  876SOL    HW1 2641   1.337   2.607   1.919
  876SOL    HW2 2642   1.321   2.727   1.809
  877SOL     OW 2643   1.068   3.195   2.711
  877SOL    HW1 2644   1.075   3.111   2.656
  877SOL    HW2 2645   1.130   3.264   2.675
  878SOL     OW 2646   0.319   2.672   2.811
  878SOL    HW1 2647   0.412   2.708   2.816
  878SOL    HW2 2648   0.313   2.587   2.863
  879SOL     OW 2649   0.339   2.371   2.868
  879SOL    HW1 2650   0.287   2.288   2.851
  879SOL    HW2 2651   0.416   2.376   2.804
  880SOL     OW 2652   1.138   2.242   3.540
  880SOL    HW1 2653   1.093   2.305   3.604
  880SOL    HW2 2654   1.231   2.273   3.523
  881SOL     OW 2655   1.160   2.069   3.339
  881SOL    HW1 2656   1.160   2.133   3.416
  881SOL    HW2 2657   1.188   2.117   3.256
  882SOL     OW 2658   0.008   3.188   2.062
  882SOL    HW1 2659  -0.085   3.209   2.031
  882SOL    HW2 2660   0.018   3.089   2.075
  883SOL     OW 2661   0.088   3.663   2.789
  883SOL    HW1 2662   0.046   3.577   2.762
  883SOL    HW2 2663   0.182   3.666   2.755
  884SOL     OW 2664   0.504   3.430   2.772
  884SOL    HW1 2665   0.570   3.504   2.781
  884SOL    HW2 2666   0.548   3.351   2.730
  885SOL     OW 2667   1.002   2.658   3.100
  885SOL    HW1 2668   1.043   2.626   3.186
  885SOL    HW2 2669   0.906   2.631   3.097
  886SOL     OW 2670   0.040   2.406   2.976
  886SOL    HW1 2671   0.125   2.373   2.935
  886SOL    HW2 2672   0.053   2.421   3.074
  887SOL     OW 2673   0.189   2.382   3.584
  887SOL    HW1 2674   0.248   2.342   3.514
  887SOL    HW2 2675   0.131   2.453   3.543
  888SOL     OW 2676   1.369   2.812   3.522
  888SOL    HW1 2677   1.408   2.901   3.542
  888SOL    HW2 2678   1.379   2.792   3.425
  889SOL     OW 2679   0.815   2.434   2.187
  889SOL    HW1 2680   0.822   2.345   2.141
  889SOL    HW2 2681   0.721   2.468   2.179
  890SOL     OW 2682   1.657   2.466   3.068
  890SOL    HW1 2683   1.619   2.397   3.130
  890SOL    HW2 2684   1.739   2.430   3.024
  891SOL     OW 2685   0.252   3.426   3.606
  891SOL    HW1 2686   0.222   3.483   3.682
  891SOL    HW2 2687   0.245   3.329   3.632
  892SOL     OW 2688   0.671   2.326   3.131
  892SOL    HW1 2689   0.637   2.237   3.101
  892SOL    HW2 2690   0.697   2.380   3.051
  893SOL     OW 2691   0.930   3.540   3.327
  893SOL    HW1 2692   0.906   3.522   3.232
  893SOL    HW2 2693   0.960   3.634   3.337
  894SOL     OW 2694   0.473   2.362   2.053
  894SOL    HW1 2695   0.534   2.442   2.057
  894SOL    HW2 2696   0.378   2.393   2.060
  895SOL     OW 2697   0.159   2.999   3.328
  895SOL    HW1 2698   0.181   2.938   3.404
  895SOL    HW2 2699   0.169   2.950   3.242
  896SOL     OW 2700   1.347   2.921   3.096
  896SOL    HW1 2701   1.371   2.858   3.022
  896SOL    HW2 2702   1.257   2.961   3.078
  897SOL     OW 2703   1.302   2.717   2.171
  897SOL    HW1 2704   1.216   2.686   2.213
  897SOL    HW2 2705   1.298   2.703   2.072
  898SOL     OW 2706   1.759   3.609   3.016
  898SOL    HW1 2707   1.820   3.639   2.943
  898SOL    HW2 2708   1.721   3.520   2.994
  899SOL     OW 2709   1.252   3.593   2.990
  899SOL    HW1 2710   1.336   3.598   2.936
  899SOL    HW2 2711   1.229   3.497   3.008
  900SOL     OW 2712   0.083   3.120   2.884
  900SOL    HW1 2713   0.078   3.119   2.984
  900SOL    HW2 2714   0.000   3.079   2.846
  901SOL     OW 2715   0.688   3.524   3.578
  901SOL    HW1 2716   0.632   3.605   3.587
  901SOL    HW2 2717   0.740   3.528   3.492
  902SOL     OW 2718   1.726   1.997   2.385
  902SOL    HW1 2719   1.799   1.980   2.318
  902SOL    HW2 2720   1.695   1.910   2.423
  903SOL     OW 2721   1.388   3.435   2.339
  903SOL    HW1 2722   1.455   3.447   2.265
  903SOL    HW2 2723   1.348   3.524   2.362
  904SOL     OW 2724   0.130   3.656   3.713
  904SOL    HW1 2725   0.089   3.582   3.766
  904SOL    HW2 2726   0.194   3.707   3.771
  905SOL     OW 2727   1.280   2.789   2.534
  905SOL    HW1 2728   1.340   2.708   2.536
  905SOL    HW2 2729   1.320   2.858   2.474
  906SOL     OW 2730   0.830   3.135   3.284
  906SOL    HW1 2731   0.825   3.168   3.379
  906SOL    HW2 2732   0.744   3.154   3.238
  907SOL     OW 2733   0.672   3.478   2.016
  907SOL    HW1 2734   0.681   3.488   1.917
  907SOL    HW2 2735   0.632   3.389   2.037
  908SOL     OW 2736   1.650   3.582   3.256
  908SOL    HW1 2737   1.703   3.592   3.172
  908SOL    HW2 2738   1.623   3.672   3.290
  909SOL     OW 2739   1.841   2.037   2.825
  909SOL    HW1 2740   1.880   1.952   2.789
  909SOL    HW2 2741   1.743   2.039   2.806
  910SOL     OW 2742   0.263   2.188   2.582
  910SOL    HW1 2743   0.184   2.239   2.548
  910SOL    HW2 2744   0.254   2.173   2.680
  911SOL     OW 2745   1.194   3.474   1.893
  911SOL    HW1 2746   1.200   3.381   1.930
  911SOL    HW2 2747   1.135   3.474   1.813
  912SOL     OW 2748   0.822   2.864   3.234
  912SOL    HW1 2749   0.862   2.863   3.142
  912SOL    HW2 2750   0.832   2.956   3.274
  913SOL     OW 2751   0.916   2.772   2.153
  913SOL    HW1 2752   0.979   2.810   2.085
  913SOL    HW2 2753   0.956   2.689   2.192
  914SOL     OW 2754   1.504   3.469   1.906
  914SOL    HW1 2755   1.412   3.506   1.913
  914SOL    HW2 2756   1.542   3.489   1.816
  915SOL     OW 2757   0.372   3.150   3.352
  915SOL    HW1 2758   0.359   3.243   3.318
  915SOL    HW2 2759   0.288   3.098   3.339
  916SOL     OW 2760   1.614   3.154   3.151
  916SOL    HW1 2761   1.674   3.157   3.231
  916SOL    HW2 2762   1.539   3.218   3.164
  917SOL     OW 2763   1.039   2.960   2.558
  917SOL    HW1 2764   0.969   2.913   2.612
  917SOL    HW2 2765   1.098   2.892   2.515
  918SOL     OW 2766   1.014   2.098   2.833
  918SOL    HW1 2767   1.006   2.062   2.740
  918SOL    HW2 2768   1.012   2.022   2.898
  919SOL     OW 2769   0.590   3.349   2.353
  919SOL    HW1 2770   0.632   3.291   2.283
  919SOL    HW2 2771   0.546   3.428   2.309
  920SOL     OW 2772   1.709   2.247   3.243
  920SOL    HW1 2773   1.782   2.316   3.247
  920SOL    HW2 2774   1.737   2.172   3.184
  921SOL     OW 2775   0.255   3.210   2.152
  921SOL    HW1 2776   0.159   3.211   2.125
  921SOL    HW2 2777   0.267   3.263   2.236
  922SOL     OW 2778   0.105   2.875   3.588
  922SOL    HW1 2779   0.028   2.842   3.642
  922SOL    HW2 2780   0.190   2.845   3.630
  923SOL     OW 2781   0.672   2.065   3.351
  923SOL    HW1 2782   0.762   2.049   3.311
  923SOL    HW2 2783   0.680   2.070   3.450
  924SOL     OW 2784   0.075   2.207   1.895
  924SOL    HW1 2785  -0.017   2.179   1.866
  924SOL    HW2 2786   0.106   2.284   1.839
  925SOL     OW 2787   1.440   2.718   3.260
  925SOL    HW1 2788   1.383   2.770   3.197
  925SOL    HW2 2789   1.536   2.730   3.236
  926SOL     OW 2790   0.072   2.028   2.180
  926SOL    HW1 2791   0.055   2.111   2.126
  926SOL    HW2 2792   0.162   1.991   2.158
  927SOL     OW 2793   1.183   3.197   1.981
  927SOL    HW1 2794   1.084   3.186   1.983
  927SOL    HW2 2795   1.217   3.212   2.074
  928SOL     OW 2796   0.613   2.704   3.293
  928SOL    HW1 2797   0.669   2.785   3.276
  928SOL    HW2 2798   0.672   2.624   3.296
  929SOL     OW 2799   1.493   3.629   2.821
  929SOL    HW1 2800   1.526   3.693   2.752
  929SOL    HW2 2801   1.559   3.623   2.896
  930SOL     OW 2802   0.716   2.427   3.570
  930SOL    HW1 2803   0.735   2.492   3.644
  930SOL    HW2 2804   0.776   2.347   3.579
  931SOL     OW 2805   1.450   3.082   3.495
  931SOL    HW1 2806   1.441   3.072   3.594
  931SOL    HW2 2807   1.546   3.075   3.469
  932SOL     OW 2808   0.390   3.603   3.422
  932SOL    HW1 2809   0.299   3.644   3.420
  932SOL    HW2 2810   0.383   3.509   3.454
  933SOL     OW 2811   1.674   2.745   3.116
  933SOL    HW1 2812   1.647   2.656   3.079
  933SOL    HW2 2813   1.675   2.813   3.043
  934SOL     OW 2814   1.225   2.187   2.311
  934SOL    HW1 2815   1.290   2.113   2.300
  934SOL    HW2 2816   1.245   2.237   2.395
  935SOL     OW 2817   0.594   2.607   2.514
  935SOL    HW1 2818   0.644   2.692   2.495
  935SOL    HW2 2819   0.506   2.609   2.466
  936SOL     OW 2820   1.777   2.204   3.504
  936SOL    HW1 2821   1.760   2.235   3.410
  936SOL    HW2 2822   1.693   2.167   3.542
  937SOL     OW 2823   1.730   2.796   3.379
  937SOL    HW1 2824   1.768   2.887   3.394
  937SOL    HW2 2825   1.722   2.779   3.280
  938SOL     OW 2826   0.859   3.236   1.878
  938SOL    HW1 2827   0.813   3.251   1.966
  938SOL    HW2 2828   0.903   3.321   1.848
  939SOL     OW 2829   0.661   3.652   2.815
  939SOL    HW1 2830   0.615   3.740   2.802
  939SOL    HW2 2831   0.760   3.664   2.808
  940SOL     OW 2832   0.859   2.818   2.723
  940SOL    HW1 2833   0.913   2.749   2.771
  940SOL    HW2 2834   0.827   2.887   2.789
  941SOL     OW 2835   1.083   2.846   1.949
  941SOL    HW1 2836   1.060   2.899   1.867
  941SOL    HW2 2837   1.164   2.790   1.930
  942SOL     OW 2838   1.861   3.431   2.713
  942SOL    HW1 2839   1.790   3.419   2.643
  942SOL    HW2 2840   1.862   3.352   2.773
  943SOL     OW 2841   0.221   3.176   3.706
  943SOL    HW1 2842   0.156   3.103   3.685
  943SOL    HW2 2843   0.225   3.190   3.804
  944SOL     OW 2844   0.079   3.102   2.515
  944SOL    HW1 2845   0.078   3.055   2.603
  944SOL    HW2 2846   0.161   3.074   2.464
  945SOL     OW 2847   0.672   3.253   3.486
  945SOL    HW1 2848   0.594   3.203   3.524
  945SOL    HW2 2849   0.669   3.348   3.517
  946SOL     OW 2850   1.824   2.054   3.089
  946SOL    HW1 2851   1.820   1.964   3.133
  946SOL    HW2 2852   1.827   2.043   2.990
  947SOL     OW 2853   0.428   2.286   2.382
  947SOL    HW1 2854   0.458   2.214   2.320
  947SOL    HW2 2855   0.389   2.246   2.465
  948SOL     OW 2856   1.705   3.349   2.966
  948SOL    HW1 2857   1.612   3.324   2.939
  948SOL    HW2 2858   1.731   3.299   3.048
  949SOL     OW 2859   0.317   2.409   3.142
  949SOL    HW1 2860   0.355   2.350   3.214
  949SOL    HW2 2861   0.357   2.383   3.054
  950SOL     OW 2862   0.812   3.448   2.549
  950SOL    HW1 2863   0.844   3.458   2.455
  950SOL    HW2 2864   0.733   3.386   2.551
  951SOL     OW 2865   1.424   2.076   2.974
  951SOL    HW1 2866   1.476   2.011   3.029
  951SOL    HW2 2867   1.375   2.139   3.035
  952SOL     OW 2868   1.001   1.896   3.016
  952SOL    HW1 2869   0.938   1.824   2.985
  952SOL    HW2 2870   1.094   1.860   3.016
  953SOL     OW 2871   0.770   3.192   2.163
  953SOL    HW1 2872   0.724   3.105   2.180
  953SOL    HW2 2873   0.861   3.189   2.204
  954SOL     OW 2874   0.618   3.429   3.146
  954SOL    HW1 2875   0.613   3.511   3.203
  954SOL    HW2 2876   0.707   3.426   3.101
  955SOL     OW 2877   1.352   1.914   2.030
  955SOL    HW1 2878   1.387   1.873   1.946
  955SOL    HW2 2879   1.262   1.876   2.050
  956SOL     OW 2880   1.300   2.315   2.553
  956SOL    HW1 2881   1.241   2.395   2.557
  956SOL    HW2 2882   1.315   2.280   2.646
  957SOL     OW 2883   1.593   2.083   2.744
  957SOL    HW1 2884   1.509   2.082   2.798
  957SOL    HW2 2885   1.595   2.166   2.688
  958SOL     OW 2886   0.039   2.939   2.162
  958SOL    HW1 2887   0.138   2.928   2.153
  958SOL    HW2 2888  -0.001   2.853   2.194
  959SOL     OW 2889   0.875   3.508   2.199
  959SOL    HW1 2890   0.798   3.473   2.145
  959SOL    HW2 2891   0.843   3.579   2.261
  960SOL     OW 2892   0.230   2.490   3.837
  960SOL    HW1 2893   0.137   2.488   3.874
  960SOL    HW2 2894   0.231   2.451   3.745
  961SOL     OW 2895   0.019   2.230   4.371
  961SOL    HW1 2896  -0.063   2.273   4.410
  961SOL    HW2 2897  -0.009   2.157   4.308
  962SOL     OW 2898   1.555   3.373   4.427
  962SOL    HW1 2899   1.498   3.357   4.508
  962SOL    HW2 2900   1.496   3.383   4.347
  963SOL     OW 2901   1.135   2.565   4.441
  963SOL    HW1 2902   1.192   2.643   4.416
  963SOL    HW2 2903   1.075   2.591   4.517
  964SOL     OW 2904   1.755   2.469   3.955
  964SOL    HW1 2905   1.743   2.456   3.856
  964SOL    HW2 2906   1.725   2.388   4.004
  965SOL     OW 2907   0.768   3.006   4.747
  965SOL    HW1 2908   0.690   3.023   4.807
  965SOL    HW2 2909   0.802   3.093   4.711
  966SOL     OW 2910   0.685   2.874   4.389
  966SOL    HW1 2911   0.754   2.858   4.459
  966SOL    HW2 2912   0.612   2.931   4.427
  967SOL     OW 2913   1.603   2.309   4.461
  967SOL    HW1 2914   1.529   2.355   4.411
  967SOL    HW2 2915   1.654   2.377   4.514
  968SOL     OW 2916   0.231   3.575   4.207
  968SOL    HW1 2917   0.265   3.652   4.261
  968SOL    HW2 2918   0.275   3.575   4.117
  969SOL     OW 2919   0.230   3.296   4.262
  969SOL    HW1 2920   0.204   3.392   4.262
  969SOL    HW2 2921   0.159   3.242   4.307
  970SOL     OW 2922   0.240   2.953   4.610
  970SOL    HW1 2923   0.254   2.869   4.662
  970SOL    HW2 2924   0.185   3.017   4.665
  971SOL     OW 2925   0.606   2.826   3.847
  971SOL    HW1 2926   0.613   2.910   3.793
  971SOL    HW2 2927   0.652   2.839   3.935
  972SOL     OW 2928   0.122   2.505   4.287
  972SOL    HW1 2929   0.077   2.417   4.304
  972SOL    HW2 2930   0.121   2.559   4.371
  973SOL     OW 2931   1.842   3.629   4.083
  973SOL    HW1 2932   1.896   3.600   4.163
  973SOL    HW2 2933   1.872   3.719   4.054
  974SOL     OW 2934   0.027   3.458   3.841
  974SOL    HW1 2935   0.008   3.362   3.862
  974SOL    HW2 2936  -0.006   3.516   3.916
  975SOL     OW 2937   1.689   2.784   4.336
  975SOL    HW1 2938   1.784   2.755   4.344
  975SOL    HW2 2939   1.681   2.849   4.261
  976SOL     OW 2940   1.641   2.970   4.156
  976SOL    HW1 2941   1.727   2.972   4.104
  976SOL    HW2 2942   1.655   3.017   4.244
  977SOL     OW 2943   0.613   3.227   4.450
  977SOL    HW1 2944   0.564   3.140   4.459
  977SOL    HW2 2945   0.590   3.270   4.363
  978SOL     OW 2946   0.809   1.866   4.226
  978SOL    HW1 2947   0.849   1.957   4.217
  978SOL    HW2 2948   0.709   1.874   4.232
  979SOL     OW 2949   1.525   2.861   3.914
  979SOL    HW1 2950   1.462   2.785   3.927
  979SOL    HW2 2951   1.573   2.879   4.000
  980SOL     OW 2952   1.466   3.279   4.677
  980SOL    HW1 2953   1.407   3.285   4.757
  980SOL    HW2 2954   1.451   3.191   4.631
  981SOL     OW 2955   1.667   3.576   4.296
  981SOL    HW1 2956   1.626   3.553   4.208
  981SOL    HW2 2957   1.649   3.502   4.361
  982SOL     OW 2958   0.598   2.591   3.994
  982SOL    HW1 2959   0.622   2.660   3.926
  982SOL    HW2 2960   0.520   2.624   4.048
  983SOL     OW 2961   1.281   2.207   4.668
  983SOL    HW1 2962   1.195   2.157   4.655
  983SOL    HW2 2963   1.343   2.153   4.724
  984SOL     OW 2964   1.576   3.524   4.031
  984SOL    HW1 2965   1.665   3.570   4.034
  984SOL    HW2 2966   1.555   3.500   3.936
  985SOL     OW 2967   1.041   2.563   4.153
  985SOL    HW1 2968   1.067   2.559   4.249
  985SOL    HW2 2969   0.956   2.512   4.139
  986SOL     OW 2970   0.076   2.673   4.513
  986SOL    HW1 2971   0.175   2.661   4.522
  986SOL    HW2 2972   0.052   2.768   4.534
  987SOL     OW 2973   0.865   2.210   3.919
  987SOL    HW1 2974   0.924   2.273   3.870
  987SOL    HW2 2975   0.884   2.116   3.890
  988SOL     OW 2976   1.362   3.006   4.269
  988SOL    HW1 2977   1.445   2.977   4.221
  988SOL    HW2 2978   1.313   3.073   4.213
  989SOL     OW 2979   0.550   2.058   4.609
  989SOL    HW1 2980   0.545   2.053   4.709
  989SOL    HW2 2981   0.552   2.154   4.580
  990SOL     OW 2982   1.008   3.318   4.201
  990SOL    HW1 2983   0.962   3.390   4.149
  990SOL    HW2 2984   1.004   3.338   4.299
  991SOL     OW 2985   0.351   3.663   4.577
  991SOL    HW1 2986   0.401   3.577   4.583
  991SOL    HW2 2987   0.416   3.740   4.574
  992SOL     OW 2988   1.795   2.928   4.597
  992SOL    HW1 2989   1.733   2.913   4.521
  992SOL    HW2 2990   1.743   2.939   4.682
  993SOL     OW 2991   0.321   2.805   3.966
  993SOL    HW1 2992   0.403   2.844   3.924
  993SOL    HW2 2993   0.294   2.723   3.917
  994SOL     OW 2994   1.458   2.597   4.452
  994SOL    HW1 2995   1.453   2.532   4.527
  994SOL    HW2 2996   1.538   2.656   4.465
  995SOL     OW 2997   1.111   3.638   3.961
  995SOL    HW1 2998   1.051   3.576   4.011
  995SOL    HW2 2999   1.142   3.594   3.876
  996SOL     OW 3000   1.632   3.239   3.805
  996SOL    HW1 3001   1.600   3.333   3.795
  996SOL    HW2 3002   1.556   3.176   3.793
  997SOL     OW 3003   0.464   3.605   4.047
  997SOL    HW1 3004   0.497   3.644   4.133
  997SOL    HW2 3005   0.540   3.598   3.982
  998SOL     OW 3006   1.400   1.969   4.150
  998SOL    HW1 3007   1.376   1.932   4.060
  998SOL    HW2 3008   1.499   1.985   4.154
  999SOL     OW 3009   0.382   2.562   4.204
  999SOL    HW1 3010   0.427   2.472   4.201
  999SOL    HW2 3011   0.288   2.551   4.237
 1000SOL     OW 3012   0.614   1.984   3.841
 1000SOL    HW1 3013   0.712   1.962   3.848
 1000SOL    HW2 3014   0.583   1.967   3.748
 1001SOL     OW 3015   0.539   1.926   4.236
 1001SOL    HW1 3016   0.458   1.927   4.294
 1001SOL    HW2 3017   0.542   2.009   4.181
 1002SOL     OW 3018   1.434   3.050   3.765
 1002SOL    HW1 3019   1.466   2.974   3.822
 1002SOL    HW2 3020   1.342   3.077   3.795
 1003SOL     OW 3021   0.297   1.897   3.895
 1003SOL    HW1 3022   0.346   1.981   3.874
 1003SOL    HW2 3023   0.359   1.832   3.940
 1004SOL     OW 3024   0.935   2.098   4.204
 1004SOL    HW1 3025   0.887   2.139   4.126
 1004SOL    HW2 3026   1.034   2.096   4.185
 1005SOL     OW 3027   1.227   3.432   4.517
 1005SOL    HW1 3028   1.248   3.506   4.452
 1005SOL    HW2 3029   1.295   3.432   4.590
 1006SOL     OW 3030   0.459   3.014   4.465
 1006SOL    HW1 3031   0.388   2.987   4.530
 1006SOL    HW2 3032   0.433   2.986   4.372
 1007SOL     OW 3033   1.271   3.659   4.315
 1007SOL    HW1 3034   1.315   3.723   4.251
 1007SOL    HW2 3035   1.221   3.711   4.385
 1008SOL     OW 3036   1.032   2.411   3.740
 1008SOL    HW1 3037   0.991   2.493   3.701
 1008SOL    HW2 3038   1.096   2.437   3.813
 1009SOL     OW 3039   0.866   2.316   4.366
 1009SOL    HW1 3040   0.834   2.388   4.304
 1009SOL    HW2 3041   0.890   2.235   4.313
 1010SOL     OW 3042   1.017   1.901   4.477
 1010SOL    HW1 3043   0.945   1.906   4.408
 1010SOL    HW2 3044   0.993   1.832   4.546
 1011SOL     OW 3045   1.429   3.035   4.591
 1011SOL    HW1 3046   1.374   2.951   4.584
 1011SOL    HW2 3047   1.455   3.064   4.499
 1012SOL     OW 3048   1.857   2.695   4.101
 1012SOL    HW1 3049   1.899   2.631   4.165
 1012SOL    HW2 3050   1.819   2.644   4.023
 1013SOL     OW 3051   0.488   3.247   3.898
 1013SOL    HW1 3052   0.401   3.232   3.945
 1013SOL    HW2 3053   0.471   3.273   3.803
 1014SOL     OW 3054   1.664   3.142   4.381
 1014SOL    HW1 3055   1.763   3.150   4.395
 1014SOL    HW2 3056   1.619   3.226   4.412
 1015SOL     OW 3057   1.390   2.437   3.802
 1015SOL    HW1 3058   1.336   2.416   3.883
 1015SOL    HW2 3059   1.481   2.396   3.811
 1016SOL     OW 3060   0.527   2.118   4.052
 1016SOL    HW1 3061   0.554   2.059   3.977
 1016SOL    HW2 3062   0.527   2.213   4.021
 1017SOL     OW 3063   0.705   2.912   4.092
 1017SOL    HW1 3064   0.691   2.919   4.191
 1017SOL    HW2 3065   0.789   2.861   4.074
 1018SOL     OW 3066   0.367   2.962   4.225
 1018SOL    HW1 3067   0.360   3.045   4.169
 1018SOL    HW2 3068   0.371   2.882   4.165
 1019SOL     OW 3069   0.566   2.399   4.589
 1019SOL    HW1 3070   0.578   2.465   4.515
 1019SOL    HW2 3071   0.612   2.433   4.672
 1020SOL     OW 3072   1.252   3.210   4.112
 1020SOL    HW1 3073   1.302   3.287   4.152
 1020SOL    HW2 3074   1.157   3.212   4.144
 1021SOL     OW 3075   1.582   2.501   4.196
 1021SOL    HW1 3076   1.551   2.562   4.269
 1021SOL    HW2 3077   1.632   2.553   4.127
 1022SOL     OW 3078   1.209   2.387   3.999
 1022SOL    HW1 3079   1.222   2.303   4.053
 1022SOL    HW2 3080   1.180   2.461   4.059
 1023SOL     OW 3081   0.732   2.496   4.788
 1023SOL    HW1 3082   0.791   2.470   4.712
 1023SOL    HW2 3083   0.704   2.592   4.777
 1024SOL     OW 3084   0.307   1.925   4.342
 1024SOL    HW1 3085   0.296   2.019   4.375
 1024SOL    HW2 3086   0.302   1.862   4.419
 1025SOL     OW 3087   1.622   2.229   4.098
 1025SOL    HW1 3088   1.624   2.153   4.162
 1025SOL    HW2 3089   1.574   2.306   4.138
 1026SOL     OW 3090   1.540   2.136   3.849
 1026SOL    HW1 3091   1.479   2.061   3.872
 1026SOL    HW2 3092   1.562   2.188   3.932
 1027SOL     OW 3093   1.303   2.700   3.766
 1027SOL    HW1 3094   1.337   2.607   3.781
 1027SOL    HW2 3095   1.321   2.727   3.671
 1028SOL     OW 3096   1.068   3.195   4.573
 1028SOL    HW1 3097   1.075   3.111   4.518
 1028SOL    HW2 3098   1.130   3.264   4.537
 1029SOL     OW 3099   0.319   2.672   4.673
 1029SOL    HW1 3100   0.412   2.708   4.678
 1029SOL    HW2 3101   0.313   2.587   4.725
 1030SOL     OW 3102   0.008   3.188   3.924
 1030SOL    HW1 3103  -0.085   3.209   3.893
 1030SOL    HW2 3104   0.018   3.089   3.937
 1031SOL     OW 3105   0.088   3.663   4.651
 1031SOL    HW1 3106   0.046   3.577   4.624
 1031SOL    HW2 3107   0.182   3.666   4.617
 1032SOL     OW 3108   0.504   3.430   4.634
 1032SOL    HW1 3109   0.570   3.504   4.643
 1032SOL    HW2 3110   0.548   3.351   4.592
 1033SOL     OW 3111   0.815   2.434   4.049
 1033SOL    HW1 3112   0.822   2.345   4.003
 1033SOL    HW2 3113   0.721   2.468   4.041
 1034SOL     OW 3114   0.473   2.362   3.915
 1034SOL    HW1 3115   0.534   2.442   3.919
 1034SOL    HW2 3116   0.378   2.393   3.922
 1035SOL     OW 3117   1.302   2.717   4.033
 1035SOL    HW1 3118   1.216   2.686   4.075
 1035SOL    HW2 3119   1.298   2.703   3.934
 1036SOL     OW 3120   1.759   3.609   4.878
 1036SOL    HW1 3121   1.820   3.639   4.805
 1036SOL    HW2 3122   1.721   3.520   4.856
 1037SOL     OW 3123   1.726   1.997   4.247
 1037SOL    HW1 3124   1.799   1.980   4.180
 1037SOL    HW2 3125   1.695   1.910   4.285
 1038SOL     OW 3126   1.388   3.435   4.201
 1038SOL    HW1 3127   1.455   3.447   4.127
 1038SOL    HW2 3128   1.348   3.524   4.224
 1039SOL     OW 3129   1.280   2.789   4.396
 1039SOL    HW1 3130   1.340   2.708   4.398
 1039SOL    HW2 3131   1.320   2.858   4.336
 1040SOL     OW 3132   0.672   3.478   3.878
 1040SOL    HW1 3133   0.681   3.488   3.779
 1040SOL    HW2 3134   0.632   3.389   3.899
 1041SOL     OW 3135   1.841   2.037   4.687
 1041SOL    HW1 3136   1.880   1.952   4.651
 1041SOL    HW2 3137   1.743   2.039   4.668
 1042SOL     OW 3138   0.263   2.188   4.444
 1042SOL    HW1 3139   0.184   2.239   4.410
 1042SOL    HW2 3140   0.254   2.173   4.542
 1043SOL     OW 3141   1.194   3.474   3.755
 1043SOL    HW1 3142   1.200   3.381   3.792
 1043SOL    HW2 3143   1.135   3.474   3.675
 1044SOL     OW 3144   0.916   2.772   4.015
 1044SOL    HW1 3145   0.979   2.810   3.947
 1044SOL    HW2 3146   0.956   2.689   4.054
 1045SOL     OW 3147   1.504   3.469   3.768
 1045SOL    HW1 3148   1.412   3.506   3.775
 1045SOL    HW2 3149   1.542   3.489   3.678
 1046SOL     OW 3150   1.039   2.960   4.420
 1046SOL    HW1 3151   0.969   2.913   4.474
 1046SOL    HW2 3152   1.098   2.892   4.377
 1047SOL     OW 3153   0.590   3.349   4.215
 1047SOL    HW1 3154   0.632   3.291   4.145
 1047SOL    HW2 3155   0.546   3.428   4.171
 1048SOL     OW 3156   0.255   3.210   4.014
 1048SOL    HW1 3157   0.159   3.211   3.987
 1048SOL    HW2 3158   0.267   3.263   4.098
 1049SOL     OW 3159   0.075   2.207   3.757
 1049SOL    HW1 3160  -0.017   2.179   3.728
 1049SOL    HW2 3161   0.106   2.284   3.701
 1050SOL     OW 3162   0.072   2.028   4.042
 1050SOL    HW1 3163   0.055   2.111   3.988
 1050SOL    HW2 3164   0.162   1.991   4.020
 1051SOL     OW 3165   1.183   3.197   3.843
 1051SOL    HW1 3166   1.084   3.186   3.845
 1051SOL    HW2 3167   1.217   3.212   3.936
 1052SOL     OW 3168   1.674   2.745   4.978
 1052SOL    HW1 3169   1.647   2.656   4.941
 1052SOL    HW2 3170   1.675   2.813   4.905
 1053SOL     OW 3171   1.225   2.187   4.173
 1053SOL    HW1 3172   1.290   2.113   4.162
 1053SOL    HW2 3173   1.245   2.237   4.257
 1054SOL     OW 3174   0.594   2.607   4.376
 1054SOL    HW1 3175   0.644   2.692   4.357
 1054SOL    HW2 3176   0.506   2.609   4.328
 1055SOL     OW 3177   0.859   3.236   3.740
 1055SOL    HW1 3178   0.813   3.251   3.828
 1055SOL    HW2 3179   0.903   3.321   3.710
 1056SOL     OW 3180   0.661   3.652   4.677
 1056SOL    HW1 3181   0.615   3.740   4.664
 1056SOL    HW2 3182   0.760   3.664   4.670
 1057SOL     OW 3183   0.859   2.818   4.585
 1057SOL    HW1 3184   0.913   2.749   4.633
 1057SOL    HW2 3185   0.827   2.887   4.651
 1058SOL     OW 3186   1.083   2.846   3.811
 1058SOL    HW1 3187   1.060   2.899   3.729
 1058SOL    HW2 3188   1.164   2.790   3.792
 1059SOL     OW 3189   1.861   3.431   4.575
 1059SOL    HW1 3190   1.790   3.419   4.505
 1059SOL    HW2 3191   1.862   3.352   4.635
 1060SOL     OW 3192   0.079   3.102   4.377
 1060SOL    HW1 3193   0.078   3.055   4.465
 1060SOL    HW2 3194   0.161   3.074   4.326
 1061SOL     OW 3195   0.428   2.286   4.244
 1061SOL    HW1 3196   0.458   2.214   4.182
 1061SOL    HW2 3197   0.389   2.246   4.327
 1062SOL     OW 3198   0.812   3.448   4.411
 1062SOL    HW1 3199   0.844   3.458   4.317
 1062SOL    HW2 3200   0.733   3.386   4.413
 1063SOL     OW 3201   0.770   3.192   4.025
 1063SOL    HW1 3202   0.724   3.105   4.042
 1063SOL    HW2 3203   0.861   3.189   4.066
 1064SOL     OW 3204   1.352   1.914   3.892
 1064SOL    HW1 3205   1.387   1.873   3.808
 1064SOL    HW2 3206   1.262   1.876   3.912
 1065SOL     OW 3207   1.300   2.315   4.415
 1065SOL    HW1 3208   1.241   2.395   4.419
 1065SOL    HW2 3209   1.315   2.280   4.508
 1066SOL     OW 3210   1.593   2.083   4.606
 1066SOL    HW1 3211   1.509   2.082   4.660
 1066SOL    HW2 3212   1.595   2.166   4.550
 1067SOL     OW 3213   0.039   2.939   4.024
 1067SOL    HW1 3214   0.138   2.928   4.015
 1067SOL    HW2 3215  -0.001   2.853   4.056
 1068SOL     OW 3216   0.875   3.508   4.061
 1068SOL    HW1 3217   0.798   3.473   4.007
 1068SOL    HW2 3218   0.843   3.579   4.123
 1069SOL     OW 3219   0.230   4.352   0.113
 1069SOL    HW1 3220   0.137   4.350   0.150
 1069SOL    HW2 3221   0.231   4.313   0.021
 1070SOL     OW 3222   0.225   3.999   0.996
 1070SOL    HW1 3223   0.260   3.982   1.088
 1070SOL    HW2 3224   0.137   3.954   0.984
 1071SOL     OW 3225   0.019   4.092   0.647
 1071SOL    HW1 3226  -0.063   4.135   0.686
 1071SOL    HW2 3227  -0.009   4.019   0.584
 1072SOL     OW 3228   1.135   4.427   0.717
 1072SOL    HW1 3229   1.192   4.505   0.692
 1072SOL    HW2 3230   1.075   4.453   0.793
 1073SOL     OW 3231   1.755   4.331   0.231
 1073SOL    HW1 3232   1.743   4.318   0.132
 1073SOL    HW2 3233   1.725   4.250   0.280
 1074SOL     OW 3234   0.768   4.868   1.023
 1074SOL    HW1 3235   0.690   4.885   1.083
 1074SOL    HW2 3236   0.802   4.955   0.987
 1075SOL     OW 3237   0.850   4.522   1.823
 1075SOL    HW1 3238   0.846   4.598   1.888
 1075SOL    HW2 3239   0.872   4.558   1.732
 1076SOL     OW 3240   0.685   4.736   0.665
 1076SOL    HW1 3241   0.754   4.720   0.735
 1076SOL    HW2 3242   0.612   4.793   0.703
 1077SOL     OW 3243   0.438   4.116   1.499
 1077SOL    HW1 3244   0.520   4.060   1.508
 1077SOL    HW2 3245   0.357   4.058   1.503
 1078SOL     OW 3246   1.603   4.171   0.737
 1078SOL    HW1 3247   1.529   4.217   0.687
 1078SOL    HW2 3248   1.654   4.239   0.790
 1079SOL     OW 3249   1.594   3.838   1.480
 1079SOL    HW1 3250   1.576   3.905   1.408
 1079SOL    HW2 3251   1.591   3.884   1.569
 1080SOL     OW 3252   0.122   4.367   0.563
 1080SOL    HW1 3253   0.077   4.279   0.580
 1080SOL    HW2 3254   0.121   4.421   0.647
 1081SOL     OW 3255   0.113   4.461   1.597
 1081SOL    HW1 3256   0.201   4.448   1.642
 1081SOL    HW2 3257   0.100   4.558   1.575
 1082SOL     OW 3258   0.809   3.728   0.502
 1082SOL    HW1 3259   0.849   3.819   0.493
 1082SOL    HW2 3260   0.709   3.736   0.508
 1083SOL     OW 3261   0.197   4.700   1.264
 1083SOL    HW1 3262   0.286   4.655   1.250
 1083SOL    HW2 3263   0.124   4.635   1.245
 1084SOL     OW 3264   1.525   4.723   0.190
 1084SOL    HW1 3265   1.462   4.647   0.203
 1084SOL    HW2 3266   1.573   4.741   0.276
 1085SOL     OW 3267   0.317   3.975   1.801
 1085SOL    HW1 3268   0.388   4.046   1.807
 1085SOL    HW2 3269   0.229   4.014   1.829
 1086SOL     OW 3270   0.598   4.453   0.270
 1086SOL    HW1 3271   0.622   4.522   0.202
 1086SOL    HW2 3272   0.520   4.486   0.324
 1087SOL     OW 3273   1.281   4.069   0.944
 1087SOL    HW1 3274   1.195   4.019   0.931
 1087SOL    HW2 3275   1.343   4.015   1.000
 1088SOL     OW 3276   0.807   4.329   1.465
 1088SOL    HW1 3277   0.760   4.326   1.554
 1088SOL    HW2 3278   0.756   4.274   1.399
 1089SOL     OW 3279   1.394   4.193   1.674
 1089SOL    HW1 3280   1.374   4.236   1.762
 1089SOL    HW2 3281   1.472   4.131   1.683
 1090SOL     OW 3282   0.973   4.614   1.572
 1090SOL    HW1 3283   1.019   4.530   1.543
 1090SOL    HW2 3284   0.917   4.648   1.497
 1091SOL     OW 3285   0.991   4.134   1.242
 1091SOL    HW1 3286   0.914   4.168   1.296
 1091SOL    HW2 3287   0.957   4.083   1.163
 1092SOL     OW 3288   1.041   4.425   0.429
 1092SOL    HW1 3289   1.067   4.421   0.525
 1092SOL    HW2 3290   0.956   4.374   0.415
 1093SOL     OW 3291   0.076   4.535   0.789
 1093SOL    HW1 3292   0.175   4.523   0.798
 1093SOL    HW2 3293   0.052   4.630   0.810
 1094SOL     OW 3294   0.865   4.072   0.195
 1094SOL    HW1 3295   0.924   4.135   0.146
 1094SOL    HW2 3296   0.884   3.978   0.166
 1095SOL     OW 3297   1.719   4.309   1.831
 1095SOL    HW1 3298   1.693   4.398   1.795
 1095SOL    HW2 3299   1.717   4.241   1.758
 1096SOL     OW 3300   0.550   3.920   0.885
 1096SOL    HW1 3301   0.545   3.915   0.985
 1096SOL    HW2 3302   0.552   4.016   0.856
 1097SOL     OW 3303   1.458   4.459   0.728
 1097SOL    HW1 3304   1.453   4.394   0.803
 1097SOL    HW2 3305   1.538   4.518   0.741
 1098SOL     OW 3306   0.202   4.009   1.498
 1098SOL    HW1 3307   0.122   4.069   1.485
 1098SOL    HW2 3308   0.192   3.960   1.584
 1099SOL     OW 3309   1.400   3.831   0.426
 1099SOL    HW1 3310   1.376   3.794   0.336
 1099SOL    HW2 3311   1.499   3.847   0.430
 1100SOL     OW 3312   0.382   4.424   0.480
 1100SOL    HW1 3313   0.427   4.334   0.477
 1100SOL    HW2 3314   0.288   4.413   0.513
 1101SOL     OW 3315   1.547   3.946   1.729
 1101SOL    HW1 3316   1.542   3.983   1.821
 1101SOL    HW2 3317   1.475   3.877   1.717
 1102SOL     OW 3318   0.781   3.988   1.749
 1102SOL    HW1 3319   0.848   3.927   1.792
 1102SOL    HW2 3320   0.708   4.007   1.814
 1103SOL     OW 3321   1.351   4.314   1.433
 1103SOL    HW1 3322   1.379   4.271   1.518
 1103SOL    HW2 3323   1.376   4.410   1.434
 1104SOL     OW 3324   0.922   4.227   0.899
 1104SOL    HW1 3325   0.897   4.218   0.803
 1104SOL    HW2 3326   0.970   4.145   0.930
 1105SOL     OW 3327   0.539   3.788   0.512
 1105SOL    HW1 3328   0.458   3.789   0.570
 1105SOL    HW2 3329   0.542   3.871   0.457
 1106SOL     OW 3330   0.297   3.759   0.171
 1106SOL    HW1 3331   0.346   3.843   0.150
 1106SOL    HW2 3332   0.359   3.694   0.216
 1107SOL     OW 3333   0.935   3.960   0.480
 1107SOL    HW1 3334   0.887   4.001   0.402
 1107SOL    HW2 3335   1.034   3.958   0.461
 1108SOL     OW 3336   1.076   4.407   1.464
 1108SOL    HW1 3337   0.996   4.346   1.467
 1108SOL    HW2 3338   1.157   4.354   1.440
 1109SOL     OW 3339   1.032   4.273   0.016
 1109SOL    HW1 3340   0.991   4.355  -0.023
 1109SOL    HW2 3341   1.096   4.299   0.089
 1110SOL     OW 3342   0.078   4.280   1.386
 1110SOL    HW1 3343   0.170   4.279   1.345
 1110SOL    HW2 3344   0.072   4.354   1.453
 1111SOL     OW 3345   0.561   3.946   1.147
 1111SOL    HW1 3346   0.599   3.862   1.184
 1111SOL    HW2 3347   0.473   3.965   1.191
 1112SOL     OW 3348   0.866   4.178   0.642
 1112SOL    HW1 3349   0.834   4.250   0.580
 1112SOL    HW2 3350   0.890   4.097   0.589
 1113SOL     OW 3351   1.017   3.763   0.753
 1113SOL    HW1 3352   0.945   3.768   0.684
 1113SOL    HW2 3353   0.993   3.694   0.822
 1114SOL     OW 3354   1.466   4.314   0.992
 1114SOL    HW1 3355   1.436   4.219   0.999
 1114SOL    HW2 3356   1.539   4.330   1.058
 1115SOL     OW 3357   1.857   4.557   0.377
 1115SOL    HW1 3358   1.899   4.493   0.441
 1115SOL    HW2 3359   1.819   4.506   0.299
 1116SOL     OW 3360   1.390   4.299   0.078
 1116SOL    HW1 3361   1.336   4.278   0.159
 1116SOL    HW2 3362   1.481   4.258   0.087
 1117SOL     OW 3363   0.527   3.980   0.328
 1117SOL    HW1 3364   0.554   3.921   0.253
 1117SOL    HW2 3365   0.527   4.075   0.297
 1118SOL     OW 3366   1.638   4.823   1.079
 1118SOL    HW1 3367   1.643   4.904   1.138
 1118SOL    HW2 3368   1.552   4.825   1.028
 1119SOL     OW 3369   0.915   3.813   1.402
 1119SOL    HW1 3370   0.940   3.793   1.307
 1119SOL    HW2 3371   0.987   3.869   1.444
 1120SOL     OW 3372   0.410   4.537   1.251
 1120SOL    HW1 3373   0.496   4.549   1.301
 1120SOL    HW2 3374   0.368   4.450   1.278
 1121SOL     OW 3375   1.274   4.110   1.262
 1121SOL    HW1 3376   1.295   4.184   1.326
 1121SOL    HW2 3377   1.185   4.127   1.219
 1122SOL     OW 3378   0.566   4.261   0.865
 1122SOL    HW1 3379   0.578   4.327   0.791
 1122SOL    HW2 3380   0.612   4.295   0.948
 1123SOL     OW 3381   1.582   4.363   0.472
 1123SOL    HW1 3382   1.551   4.424   0.545
 1123SOL    HW2 3383   1.632   4.415   0.403
 1124SOL     OW 3384   0.402   4.475   1.598
 1124SOL    HW1 3385   0.470   4.530   1.551
 1124SOL    HW2 3386   0.442   4.387   1.625
 1125SOL     OW 3387   1.587   4.503   1.670
 1125SOL    HW1 3388   1.495   4.541   1.665
 1125SOL    HW2 3389   1.647   4.550   1.605
 1126SOL     OW 3390   1.013   3.829   1.770
 1126SOL    HW1 3391   1.019   3.914   1.718
 1126SOL    HW2 3392   1.045   3.753   1.713
 1127SOL     OW 3393   0.504   3.774   1.740
 1127SOL    HW1 3394   0.462   3.717   1.670
 1127SOL    HW2 3395   0.438   3.843   1.772
 1128SOL     OW 3396   0.573   4.594   1.029
 1128SOL    HW1 3397   0.617   4.683   1.020
 1128SOL    HW2 3398   0.510   4.594   1.106
 1129SOL     OW 3399   1.360   4.586   1.045
 1129SOL    HW1 3400   1.285   4.586   0.979
 1129SOL    HW2 3401   1.397   4.494   1.054
 1130SOL     OW 3402   1.209   4.249   0.275
 1130SOL    HW1 3403   1.222   4.165   0.329
 1130SOL    HW2 3404   1.180   4.323   0.335
 1131SOL     OW 3405   0.307   3.937   1.231
 1131SOL    HW1 3406   0.284   3.974   1.321
 1131SOL    HW2 3407   0.277   3.842   1.225
 1132SOL     OW 3408   0.037   5.034   1.282
 1132SOL    HW1 3409   0.090   4.985   1.350
 1132SOL    HW2 3410   0.059   5.132   1.287
 1133SOL     OW 3411   0.732   4.358   1.064
 1133SOL    HW1 3412   0.791   4.332   0.988
 1133SOL    HW2 3413   0.704   4.454   1.053
 1134SOL     OW 3414   1.728   4.659   1.854
 1134SOL    HW1 3415   1.682   4.652   1.765
 1134SOL    HW2 3416   1.666   4.703   1.920
 1135SOL     OW 3417   0.307   3.787   0.618
 1135SOL    HW1 3418   0.296   3.881   0.651
 1135SOL    HW2 3419   0.302   3.724   0.695
 1136SOL     OW 3420   1.622   4.091   0.374
 1136SOL    HW1 3421   1.624   4.015   0.438
 1136SOL    HW2 3422   1.574   4.168   0.414
 1137SOL     OW 3423   1.023   4.490   0.966
 1137SOL    HW1 3424   1.038   4.511   1.062
 1137SOL    HW2 3425   0.993   4.395   0.957
 1138SOL     OW 3426   0.350   4.622   1.804
 1138SOL    HW1 3427   0.426   4.666   1.852
 1138SOL    HW2 3428   0.385   4.575   1.722
 1139SOL     OW 3429   1.540   3.998   0.125
 1139SOL    HW1 3430   1.479   3.923   0.148
 1139SOL    HW2 3431   1.562   4.050   0.208
 1140SOL     OW 3432   1.303   4.562   0.042
 1140SOL    HW1 3433   1.337   4.469   0.057
 1140SOL    HW2 3434   1.321   4.589  -0.053
 1141SOL     OW 3435   0.319   4.534   0.949
 1141SOL    HW1 3436   0.412   4.570   0.954
 1141SOL    HW2 3437   0.313   4.449   1.001
 1142SOL     OW 3438   0.339   4.233   1.006
 1142SOL    HW1 3439   0.287   4.150   0.989
 1142SOL    HW2 3440   0.416   4.238   0.942
 1143SOL     OW 3441   1.138   4.104   1.678
 1143SOL    HW1 3442   1.093   4.167   1.742
 1143SOL    HW2 3443   1.231   4.135   1.661
 1144SOL     OW 3444   1.160   3.931   1.477
 1144SOL    HW1 3445   1.160   3.995   1.554
 1144SOL    HW2 3446   1.188   3.979   1.394
 1145SOL     OW 3447   1.002   4.520   1.238
 1145SOL    HW1 3448   1.043   4.488   1.324
 1145SOL    HW2 3449   0.906   4.493   1.235
 1146SOL     OW 3450   0.040   4.268   1.114
 1146SOL    HW1 3451   0.125   4.235   1.073
 1146SOL    HW2 3452   0.053   4.283   1.212
 1147SOL     OW 3453   0.189   4.244   1.722
 1147SOL    HW1 3454   0.248   4.204   1.652
 1147SOL    HW2 3455   0.131   4.315   1.681
 1148SOL     OW 3456   1.369   4.674   1.660
 1148SOL    HW1 3457   1.408   4.763   1.680
 1148SOL    HW2 3458   1.379   4.654   1.563
 1149SOL     OW 3459   0.815   4.296   0.325
 1149SOL    HW1 3460   0.822   4.207   0.279
 1149SOL    HW2 3461   0.721   4.330   0.317
 1150SOL     OW 3462   1.657   4.328   1.206
 1150SOL    HW1 3463   1.619   4.259   1.268
 1150SOL    HW2 3464   1.739   4.292   1.162
 1151SOL     OW 3465   0.671   4.188   1.269
 1151SOL    HW1 3466   0.637   4.099   1.239
 1151SOL    HW2 3467   0.697   4.242   1.189
 1152SOL     OW 3468   0.473   4.224   0.191
 1152SOL    HW1 3469   0.534   4.304   0.195
 1152SOL    HW2 3470   0.378   4.255   0.198
 1153SOL     OW 3471   1.347   4.783   1.234
 1153SOL    HW1 3472   1.371   4.720   1.160
 1153SOL    HW2 3473   1.257   4.823   1.216
 1154SOL     OW 3474   1.302   4.579   0.309
 1154SOL    HW1 3475   1.216   4.548   0.351
 1154SOL    HW2 3476   1.298   4.565   0.210
 1155SOL     OW 3477   0.903   3.810   0.133
 1155SOL    HW1 3478   0.954   3.811   0.047
 1155SOL    HW2 3479   0.959   3.768   0.204
 1156SOL     OW 3480   1.726   3.859   0.523
 1156SOL    HW1 3481   1.799   3.842   0.456
 1156SOL    HW2 3482   1.695   3.772   0.561
 1157SOL     OW 3483   1.280   4.651   0.672
 1157SOL    HW1 3484   1.340   4.570   0.674
 1157SOL    HW2 3485   1.320   4.720   0.612
 1158SOL     OW 3486   1.841   3.899   0.963
 1158SOL    HW1 3487   1.880   3.814   0.927
 1158SOL    HW2 3488   1.743   3.901   0.944
 1159SOL     OW 3489   0.263   4.050   0.720
 1159SOL    HW1 3490   0.184   4.101   0.686
 1159SOL    HW2 3491   0.254   4.035   0.818
 1160SOL     OW 3492   1.014   3.960   0.971
 1160SOL    HW1 3493   1.006   3.924   0.878
 1160SOL    HW2 3494   1.012   3.884   1.036
 1161SOL     OW 3495   1.709   4.109   1.381
 1161SOL    HW1 3496   1.782   4.178   1.385
 1161SOL    HW2 3497   1.737   4.034   1.322
 1162SOL     OW 3498   0.105   4.737   1.726
 1162SOL    HW1 3499   0.028   4.704   1.780
 1162SOL    HW2 3500   0.190   4.707   1.768
 1163SOL     OW 3501   0.672   3.927   1.489
 1163SOL    HW1 3502   0.762   3.911   1.449
 1163SOL    HW2 3503   0.680   3.932   1.588
 1164SOL     OW 3504   0.075   4.069   0.033
 1164SOL    HW1 3505  -0.017   4.041   0.004
 1164SOL    HW2 3506   0.106   4.146  -0.023
 1165SOL     OW 3507   1.440   4.580   1.398
 1165SOL    HW1 3508   1.383   4.632   1.335
 1165SOL    HW2 3509   1.536   4.592   1.374
 1166SOL     OW 3510   0.072   3.890   0.318
 1166SOL    HW1 3511   0.055   3.973   0.264
 1166SOL    HW2 3512   0.162   3.853   0.296
 1167SOL     OW 3513   0.613   4.566   1.431
 1167SOL    HW1 3514   0.669   4.647   1.414
 1167SOL    HW2 3515   0.672   4.486   1.434
 1168SOL     OW 3516   0.716   4.289   1.708
 1168SOL    HW1 3517   0.735   4.354   1.782
 1168SOL    HW2 3518   0.776   4.209   1.717
 1169SOL     OW 3519   1.674   4.607   1.254
 1169SOL    HW1 3520   1.647   4.518   1.217
 1169SOL    HW2 3521   1.675   4.675   1.181
 1170SOL     OW 3522   1.225   4.049   0.449
 1170SOL    HW1 3523   1.290   3.975   0.438
 1170SOL    HW2 3524   1.245   4.099   0.533
 1171SOL     OW 3525   0.594   4.469   0.652
 1171SOL    HW1 3526   0.644   4.554   0.633
 1171SOL    HW2 3527   0.506   4.471   0.604
 1172SOL     OW 3528   1.777   4.066   1.642
 1172SOL    HW1 3529   1.760   4.097   1.548
 1172SOL    HW2 3530   1.693   4.029   1.680
 1173SOL     OW 3531   1.730   4.658   1.517
 1173SOL    HW1 3532   1.768   4.749   1.532
 1173SOL    HW2 3533   1.722   4.641   1.418
 1174SOL     OW 3534   1.824   3.916   1.227
 1174SOL    HW1 3535   1.820   3.826   1.271
 1174SOL    HW2 3536   1.827   3.905   1.128
 1175SOL     OW 3537   0.428   4.148   0.520
 1175SOL    HW1 3538   0.458   4.076   0.458
 1175SOL    HW2 3539   0.389   4.108   0.603
 1176SOL     OW 3540   0.317   4.271   1.280
 1176SOL    HW1 3541   0.355   4.212   1.352
 1176SOL    HW2 3542   0.357   4.245   1.192
 1177SOL     OW 3543   1.424   3.938   1.112
 1177SOL    HW1 3544   1.476   3.873   1.167
 1177SOL    HW2 3545   1.375   4.001   1.173
 1178SOL     OW 3546   1.001   3.758   1.154
 1178SOL    HW1 3547   0.938   3.686   1.123
 1178SOL    HW2 3548   1.094   3.722   1.154
 1179SOL     OW 3549   1.352   3.776   0.168
 1179SOL    HW1 3550   1.387   3.735   0.084
 1179SOL    HW2 3551   1.262   3.738   0.188
 1180SOL     OW 3552   1.300   4.177   0.691
 1180SOL    HW1 3553   1.241   4.257   0.695
 1180SOL    HW2 3554   1.315   4.142   0.784
 1181SOL     OW 3555   1.593   3.945   0.882
 1181SOL    HW1 3556   1.509   3.944   0.936
 1181SOL    HW2 3557   1.595   4.028   0.826
 1182SOL     OW 3558   0.230   4.352   1.975
 1182SOL    HW1 3559   0.137   4.350   2.012
 1182SOL    HW2 3560   0.231   4.313   1.883
 1183SOL     OW 3561   0.225   3.999   2.858
 1183SOL    HW1 3562   0.260   3.982   2.950
 1183SOL    HW2 3563   0.137   3.954   2.846
 1184SOL     OW 3564   0.019   4.092   2.509
 1184SOL    HW1 3565  -0.063   4.135   2.548
 1184SOL    HW2 3566  -0.009   4.019   2.446
 1185SOL     OW 3567   1.135   4.427   2.579
 1185SOL    HW1 3568   1.192   4.505   2.554
 1185SOL    HW2 3569   1.075   4.453   2.655
 1186SOL     OW 3570   1.755   4.331   2.093
 1186SOL    HW1 3571   1.743   4.318   1.994
 1186SOL    HW2 3572   1.725   4.250   2.142
 1187SOL     OW 3573   0.768   4.868   2.885
 1187SOL    HW1 3574   0.690   4.885   2.945
 1187SOL    HW2 3575   0.802   4.955   2.849
 1188SOL     OW 3576   0.850   4.522   3.685
 1188SOL    HW1 3577   0.846   4.598   3.750
 1188SOL    HW2 3578   0.872   4.558   3.594
 1189SOL     OW 3579   0.685   4.736   2.527
 1189SOL    HW1 3580   0.754   4.720   2.597
 1189SOL    HW2 3581   0.612   4.793   2.565
 1190SOL     OW 3582   0.438   4.116   3.361
 1190SOL    HW1 3583   0.520   4.060   3.370
 1190SOL    HW2 3584   0.357   4.058   3.365
 1191SOL     OW 3585   1.603   4.171   2.599
 1191SOL    HW1 3586   1.529   4.217   2.549
 1191SOL    HW2 3587   1.654   4.239   2.652
 1192SOL     OW 3588   1.594   3.838   3.342
 1192SOL    HW1 3589   1.576   3.905   3.270
 1192SOL    HW2 3590   1.591   3.884   3.431
 1193SOL     OW 3591   0.122   4.367   2.425
 1193SOL    HW1 3592   0.077   4.279   2.442
 1193SOL    HW2 3593   0.121   4.421   2.509
 1194SOL     OW 3594   0.113   4.461   3.459
 1194SOL    HW1 3595   0.201   4.448   3.504
 1194SOL    HW2 3596   0.100   4.558   3.437
 1195SOL     OW 3597   0.809   3.728   2.364
 1195SOL    HW1 3598   0.849   3.819   2.355
 1195SOL    HW2 3599   0.709   3.736   2.370
 1196SOL     OW 3600   0.197   4.700   3.126
 1196SOL    HW1 3601   0.286   4.655   3.112
 1196SOL    HW2 3602   0.124   4.635   3.107
 1197SOL     OW 3603   1.525   4.723   2.052
 1197SOL    HW1 3604   1.462   4.647   2.065
 1197SOL    HW2 3605   1.573   4.741   2.138
 1198SOL     OW 3606   0.317   3.975   3.663
 1198SOL    HW1 3607   0.388   4.046   3.669
 1198SOL    HW2 3608   0.229   4.014   3.691
 1199SOL     OW 3609   0.598   4.453   2.132
 1199SOL    HW1 3610   0.622   4.522   2.064
 1199SOL    HW2 3611   0.520   4.486   2.186
 1200SOL     OW 3612   1.281   4.069   2.806
 1200SOL    HW1 3613   1.195   4.019   2.793
 1200SOL    HW2 3614   1.343   4.015   2.862
 1201SOL     OW 3615   0.807   4.329   3.327
 1201SOL    HW1 3616   0.760   4.326   3.416
 1201SOL    HW2 3617   0.756   4.274   3.261
 1202SOL     OW 3618   1.394   4.193   3.536
 1202SOL    HW1 3619   1.374   4.236   3.624
 1202SOL    HW2 3620   1.472   4.131   3.545
 1203SOL     OW 3621   0.973   4.614   3.434
 1203SOL    HW1 3622   1.019   4.530   3.405
 1203SOL    HW2 3623   0.917   4.648   3.359
 1204SOL     OW 3624   0.991   4.134   3.104
 1204SOL    HW1 3625   0.914   4.168   3.158
 1204SOL    HW2 3626   0.957   4.083   3.025
 1205SOL     OW 3627   1.041   4.425   2.291
 1205SOL    HW1 3628   1.067   4.421   2.387
 1205SOL    HW2 3629   0.956   4.374   2.277
 1206SOL     OW 3630   0.076   4.535   2.651
 1206SOL    HW1 3631   0.175   4.523   2.660
 1206SOL    HW2 3632   0.052   4.630   2.672
 1207SOL     OW 3633   0.865   4.072   2.057
 1207SOL    HW1 3634   0.924   4.135   2.008
 1207SOL    HW2 3635   0.884   3.978   2.028
 1208SOL     OW 3636   1.719   4.309   3.693
 1208SOL    HW1 3637   1.693   4.398   3.657
 1208SOL    HW2 3638   1.717   4.241   3.620
 1209SOL     OW 3639   0.550   3.920   2.747
 1209SOL    HW1 3640   0.545   3.915   2.847
 1209SOL    HW2 3641   0.552   4.016   2.718
 1210SOL     OW 3642   1.458   4.459   2.590
 1210SOL    HW1 3643   1.453   4.394   2.665
 1210SOL    HW2 3644   1.538   4.518   2.603
 1211SOL     OW 3645   0.202   4.009   3.360
 1211SOL    HW1 3646   0.122   4.069   3.347
 1211SOL    HW2 3647   0.192   3.960   3.446
 1212SOL     OW 3648   1.400   3.831   2.288
 1212SOL    HW1 3649   1.376   3.794   2.198
 1212SOL    HW2 3650   1.499   3.847   2.292
 1213SOL     OW 3651   0.382   4.424   2.342
 1213SOL    HW1 3652   0.427   4.334   2.339
 1213SOL    HW2 3653   0.288   4.413   2.375
 1214SOL     OW 3654   1.547   3.946   3.591
 1214SOL    HW1 3655   1.542   3.983   3.683
 1214SOL    HW2 3656   1.475   3.877   3.579
 1215SOL     OW 3657   0.614   3.846   1.979
 1215SOL    HW1 3658   0.712   3.824   1.986
 1215SOL    HW2 3659   0.583   3.829   1.886
 1216SOL     OW 3660   0.781   3.988   3.611
 1216SOL    HW1 3661   0.848   3.927   3.654
 1216SOL    HW2 3662   0.708   4.007   3.676
 1217SOL     OW 3663   1.351   4.314   3.295
 1217SOL    HW1 3664   1.379   4.271   3.380
 1217SOL    HW2 3665   1.376   4.410   3.296
 1218SOL     OW 3666   0.922   4.227   2.761
 1218SOL    HW1 3667   0.897   4.218   2.665
 1218SOL    HW2 3668   0.970   4.145   2.792
 1219SOL     OW 3669   0.539   3.788   2.374
 1219SOL    HW1 3670   0.458   3.789   2.432
 1219SOL    HW2 3671   0.542   3.871   2.319
 1220SOL     OW 3672   0.297   3.759   2.033
 1220SOL    HW1 3673   0.346   3.843   2.012
 1220SOL    HW2 3674   0.359   3.694   2.078
 1221SOL     OW 3675   0.935   3.960   2.342
 1221SOL    HW1 3676   0.887   4.001   2.264
 1221SOL    HW2 3677   1.034   3.958   2.323
 1222SOL     OW 3678   1.076   4.407   3.326
 1222SOL    HW1 3679   0.996   4.346   3.329
 1222SOL    HW2 3680   1.157   4.354   3.302
 1223SOL     OW 3681   1.032   4.273   1.878
 1223SOL    HW1 3682   0.991   4.355   1.839
 1223SOL    HW2 3683   1.096   4.299   1.951
 1224SOL     OW 3684   0.078   4.280   3.248
 1224SOL    HW1 3685   0.170   4.279   3.207
 1224SOL    HW2 3686   0.072   4.354   3.315
 1225SOL     OW 3687   0.561   3.946   3.009
 1225SOL    HW1 3688   0.599   3.862   3.046
 1225SOL    HW2 3689   0.473   3.965   3.053
 1226SOL     OW 3690   0.866   4.178   2.504
 1226SOL    HW1 3691   0.834   4.250   2.442
 1226SOL    HW2 3692   0.890   4.097   2.451
 1227SOL     OW 3693   1.017   3.763   2.615
 1227SOL    HW1 3694   0.945   3.768   2.546
 1227SOL    HW2 3695   0.993   3.694   2.684
 1228SOL     OW 3696   1.466   4.314   2.854
 1228SOL    HW1 3697   1.436   4.219   2.861
 1228SOL    HW2 3698   1.539   4.330   2.920
 1229SOL     OW 3699   1.857   4.557   2.239
 1229SOL    HW1 3700   1.899   4.493   2.303
 1229SOL    HW2 3701   1.819   4.506   2.161
 1230SOL     OW 3702   1.390   4.299   1.940
 1230SOL    HW1 3703   1.336   4.278   2.021
 1230SOL    HW2 3704   1.481   4.258   1.949
 1231SOL     OW 3705   0.527   3.980   2.190
 1231SOL    HW1 3706   0.554   3.921   2.115
 1231SOL    HW2 3707   0.527   4.075   2.159
 1232SOL     OW 3708   1.638   4.823   2.941
 1232SOL    HW1 3709   1.643   4.904   3.000
 1232SOL    HW2 3710   1.552   4.825   2.890
 1233SOL     OW 3711   0.915   3.813   3.264
 1233SOL    HW1 3712   0.940   3.793   3.169
 1233SOL    HW2 3713   0.987   3.869   3.306
 1234SOL     OW 3714   0.410   4.537   3.113
 1234SOL    HW1 3715   0.496   4.549   3.163
 1234SOL    HW2 3716   0.368   4.450   3.140
 1235SOL     OW 3717   1.274   4.110   3.124
 1235SOL    HW1 3718   1.295   4.184   3.188
 1235SOL    HW2 3719   1.185   4.127   3.081
 1236SOL     OW 3720   0.566   4.261   2.727
 1236SOL    HW1 3721   0.578   4.327   2.653
 1236SOL    HW2 3722   0.612   4.295   2.810
 1237SOL     OW 3723   1.582   4.363   2.334
 1237SOL    HW1 3724   1.551   4.424   2.407
 1237SOL    HW2 3725   1.632   4.415   2.265
 1238SOL     OW 3726   0.402   4.475   3.460
 1238SOL    HW1 3727   0.470   4.530   3.413
 1238SOL    HW2 3728   0.442   4.387   3.487
 1239SOL     OW 3729   1.587   4.503   3.532
 1239SOL    HW1 3730   1.495   4.541   3.527
 1239SOL    HW2 3731   1.647   4.550   3.467
 1240SOL     OW 3732   1.013   3.829   3.632
 1240SOL    HW1 3733   1.019   3.914   3.580
 1240SOL    HW2 3734   1.045   3.753   3.575
 1241SOL     OW 3735   0.504   3.774   3.602
 1241SOL    HW1 3736   0.462   3.717   3.532
 1241SOL    HW2 3737   0.438   3.843   3.634
 1242SOL     OW 3738   0.573   4.594   2.891
 1242SOL    HW1 3739   0.617   4.683   2.882
 1242SOL    HW2 3740   0.510   4.594   2.968
 1243SOL     OW 3741   1.360   4.586   2.907
 1243SOL    HW1 3742   1.285   4.586   2.841
 1243SOL    HW2 3743   1.397   4.494   2.916
 1244SOL     OW 3744   1.209   4.249   2.137
 1244SOL    HW1 3745   1.222   4.165   2.191
 1244SOL    HW2 3746   1.180   4.323   2.197
 1245SOL     OW 3747   0.307   3.937   3.093
 1245SOL    HW1 3748   0.284   3.974   3.183
 1245SOL    HW2 3749   0.277   3.842   3.087
 1246SOL     OW 3750   0.037   5.034   3.144
 1246SOL    HW1 3751   0.090   4.985   3.212
 1246SOL    HW2 3752   0.059   5.132   3.149
 1247SOL     OW 3753   0.732   4.358   2.926
 1247SOL    HW1 3754   0.791   4.332   2.850
 1247SOL    HW2 3755   0.704   4.454   2.915
 1248SOL     OW 3756   1.728   4.659   3.716
 1248SOL    HW1 3757   1.682   4.652   3.627
 1248SOL    HW2 3758   1.666   4.703   3.782
 1249SOL     OW 3759   0.307   3.787   2.480
 1249SOL    HW1 3760   0.296   3.881   2.513
 1249SOL    HW2 3761   0.302   3.724   2.557
 1250SOL     OW 3762   1.622   4.091   2.236
 1250SOL    HW1 3763   1.624   4.015   2.300
 1250SOL    HW2 3764   1.574   4.168   2.276
 1251SOL     OW 3765   1.023   4.490   2.828
 1251SOL    HW1 3766   1.038   4.511   2.924
 1251SOL    HW2 3767   0.993   4.395   2.819
 1252SOL     OW 3768   0.350   4.622   3.666
 1252SOL    HW1 3769   0.426   4.666   3.714
 1252SOL    HW2 3770   0.385   4.575   3.584
 1253SOL     OW 3771   1.540   3.998   1.987
 1253SOL    HW1 3772   1.479   3.923   2.010
 1253SOL    HW2 3773   1.562   4.050   2.070
 1254SOL     OW 3774   1.303   4.562   1.904
 1254SOL    HW1 3775   1.337   4.469   1.919
 1254SOL    HW2 3776   1.321   4.589   1.809
 1255SOL     OW 3777   0.319   4.534   2.811
 1255SOL    HW1 3778   0.412   4.570   2.816
 1255SOL    HW2 3779   0.313   4.449   2.863
 1256SOL     OW 3780   0.339   4.233   2.868
 1256SOL    HW1 3781   0.287   4.150   2.851
 1256SOL    HW2 3782   0.416   4.238   2.804
 1257SOL     OW 3783   1.138   4.104   3.540
 1257SOL    HW1 3784   1.093   4.167   3.604
 1257SOL    HW2 3785   1.231   4.135   3.523
 1258SOL     OW 3786   1.160   3.931   3.339
 1258SOL    HW1 3787   1.160   3.995   3.416
 1258SOL    HW2 3788   1.188   3.979   3.256
 1259SOL     OW 3789   1.002   4.520   3.100
 1259SOL    HW1 3790   1.043   4.488   3.186
 1259SOL    HW2 3791   0.906   4.493   3.097
 1260SOL     OW 3792   0.040   4.268   2.976
 1260SOL    HW1 3793   0.125   4.235   2.935
 1260SOL    HW2 3794   0.053   4.283   3.074
 1261SOL     OW 3795   0.189   4.244   3.584
 1261SOL    HW1 3796   0.248   4.204   3.514
 1261SOL    HW2 3797   0.131   4.315   3.543
 1262SOL     OW 3798   1.369   4.674   3.522
 1262SOL    HW1 3799   1.408   4.763   3.542
 1262SOL    HW2 3800   1.379   4.654   3.425
 1263SOL     OW 3801   0.815   4.296   2.187
 1263SOL    HW1 3802   0.822   4.207   2.141
 1263SOL    HW2 3803   0.721   4.330   2.179
 1264SOL     OW 3804   1.657   4.328   3.068
 1264SOL    HW1 3805   1.619   4.259   3.130
 1264SOL    HW2 3806   1.739   4.292   3.024
 1265SOL     OW 3807   0.671   4.188   3.131
 1265SOL    HW1 3808   0.637   4.099   3.101
 1265SOL    HW2 3809   0.697   4.242   3.051
 1266SOL     OW 3810   0.473   4.224   2.053
 1266SOL    HW1 3811   0.534   4.304   2.057
 1266SOL    HW2 3812   0.378   4.255   2.060
 1267SOL     OW 3813   1.347   4.783   3.096
 1267SOL    HW1 3814   1.371   4.720   3.022
 1267SOL    HW2 3815   1.257   4.823   3.078
 1268SOL     OW 3816   1.302   4.579   2.171
 1268SOL    HW1 3817   1.216   4.548   2.213
 1268SOL    HW2 3818   1.298   4.565   2.072
 1269SOL     OW 3819   1.726   3.859   2.385
 1269SOL    HW1 3820   1.799   3.842   2.318
 1269SOL    HW2 3821   1.695   3.772   2.423
 1270SOL     OW 3822   1.280   4.651   2.534
 1270SOL    HW1 3823   1.340   4.570   2.536
 1270SOL    HW2 3824   1.320   4.720   2.474
 1271SOL     OW 3825   1.841   3.899   2.825
 1271SOL    HW1 3826   1.880   3.814   2.789
 1271SOL    HW2 3827   1.743   3.901   2.806
 1272SOL     OW 3828   0.263   4.050   2.582
 1272SOL    HW1 3829   0.184   4.101   2.548
 1272SOL    HW2 3830   0.254   4.035   2.680
 1273SOL     OW 3831   0.916   4.634   2.153
 1273SOL    HW1 3832   0.979   4.672   2.085
 1273SOL    HW2 3833   0.956   4.551   2.192
 1274SOL     OW 3834   1.014   3.960   2.833
 1274SOL    HW1 3835   1.006   3.924   2.740
 1274SOL    HW2 3836   1.012   3.884   2.898
 1275SOL     OW 3837   1.709   4.109   3.243
 1275SOL    HW1 3838   1.782   4.178   3.247
 1275SOL    HW2 3839   1.737   4.034   3.184
 1276SOL     OW 3840   0.105   4.737   3.588
 1276SOL    HW1 3841   0.028   4.704   3.642
 1276SOL    HW2 3842   0.190   4.707   3.630
 1277SOL     OW 3843   0.672   3.927   3.351
 1277SOL    HW1 3844   0.762   3.911   3.311
 1277SOL    HW2 3845   0.680   3.932   3.450
 1278SOL     OW 3846   0.075   4.069   1.895
 1278SOL    HW1 3847  -0.017   4.041   1.866
 1278SOL    HW2 3848   0.106   4.146   1.839
 1279SOL     OW 3849   1.440   4.580   3.260
 1279SOL    HW1 3850   1.383   4.632   3.197
 1279SOL    HW2 3851   1.536   4.592   3.236
 1280SOL     OW 3852   0.072   3.890   2.180
 1280SOL    HW1 3853   0.055   3.973   2.126
 1280SOL    HW2 3854   0.162   3.853   2.158
 1281SOL     OW 3855   0.613   4.566   3.293
 1281SOL    HW1 3856   0.669   4.647   3.276
 1281SOL    HW2 3857   0.672   4.486   3.296
 1282SOL     OW 3858   0.716   4.289   3.570
 1282SOL    HW1 3859   0.735   4.354   3.644
 1282SOL    HW2 3860   0.776   4.209   3.579
 1283SOL     OW 3861   1.674   4.607   3.116
 1283SOL    HW1 3862   1.647   4.518   3.079
 1283SOL    HW2 3863   1.675   4.675   3.043
 1284SOL     OW 3864   1.225   4.049   2.311
 1284SOL    HW1 3865   1.290   3.975   2.300
 1284SOL    HW2 3866   1.245   4.099   2.395
 1285SOL     OW 3867   0.594   4.469   2.514
 1285SOL    HW1 3868   0.644   4.554   2.495
 1285SOL    HW2 3869   0.506   4.471   2.466
 1286SOL     OW 3870   1.777   4.066   3.504
 1286SOL    HW1 3871   1.760   4.097   3.410
 1286SOL    HW2 3872   1.693   4.029   3.542
 1287SOL     OW 3873   1.730   4.658   3.379
 1287SOL    HW1 3874   1.768   4.749   3.394
 1287SOL    HW2 3875   1.722   4.641   3.280
 1288SOL     OW 3876   1.824   3.916   3.089
 1288SOL    HW1 3877   1.820   3.826   3.133
 1288SOL    HW2 3878   1.827   3.905   2.990
 1289SOL     OW 3879   0.428   4.148   2.382
 1289SOL    HW1 3880   0.458   4.076   2.320
 1289SOL    HW2 3881   0.389   4.108   2.465
 1290SOL     OW 3882   0.317   4.271   3.142
 1290SOL    HW1 3883   0.355   4.212   3.214
 1290SOL    HW2 3884   0.357   4.245   3.054
 1291SOL     OW 3885   1.424   3.938   2.974
 1291SOL    HW1 3886   1.476   3.873   3.029
 1291SOL    HW2 3887   1.375   4.001   3.035
 1292SOL     OW 3888   1.001   3.758   3.016
 1292SOL    HW1 3889   0.938   3.686   2.985
 1292SOL    HW2 3890   1.094   3.722   3.016
 1293SOL     OW 3891   1.352   3.776   2.030
 1293SOL    HW1 3892   1.387   3.735   1.946
 1293SOL    HW2 3893   1.262   3.738   2.050
 1294SOL     OW 3894   1.300   4.177   2.553
 1294SOL    HW1 3895   1.241   4.257   2.557
 1294SOL    HW2 3896   1.315   4.142   2.646
 1295SOL     OW 3897   1.593   3.945   2.744
 1295SOL    HW1 3898   1.509   3.944   2.798
 1295SOL    HW2 3899   1.595   4.028   2.688
 1296SOL     OW 3900   0.230   4.352   3.837
 1296SOL    HW1 3901   0.137   4.350   3.874
 1296SOL    HW2 3902   0.231   4.313   3.745
 1297SOL     OW 3903   0.019   4.092   4.371
 1297SOL    HW1 3904  -0.063   4.135   4.410
 1297SOL    HW2 3905  -0.009   4.019   4.308
 1298SOL     OW 3906   1.135   4.427   4.441
 1298SOL    HW1 3907   1.192   4.505   4.416
 1298SOL    HW2 3908   1.075   4.453   4.517
 1299SOL     OW 3909   1.755   4.331   3.955
 1299SOL    HW1 3910   1.743   4.318   3.856
 1299SOL    HW2 3911   1.725   4.250   4.004
 1300SOL     OW 3912   0.685   4.736   4.389
 1300SOL    HW1 3913   0.754   4.720   4.459
 1300SOL    HW2 3914   0.612   4.793   4.427
 1301SOL     OW 3915   1.603   4.171   4.461
 1301SOL    HW1 3916   1.529   4.217   4.411
 1301SOL    HW2 3917   1.654   4.239   4.514
 1302SOL     OW 3918   0.240   4.815   4.610
 1302SOL    HW1 3919   0.254   4.731   4.662
 1302SOL    HW2 3920   0.185   4.879   4.665
 1303SOL     OW 3921   0.122   4.367   4.287
 1303SOL    HW1 3922   0.077   4.279   4.304
 1303SOL    HW2 3923   0.121   4.421   4.371
 1304SOL     OW 3924   0.809   3.728   4.226
 1304SOL    HW1 3925   0.849   3.819   4.217
 1304SOL    HW2 3926   0.709   3.736   4.232
 1305SOL     OW 3927   1.525   4.723   3.914
 1305SOL    HW1 3928   1.462   4.647   3.927
 1305SOL    HW2 3929   1.573   4.741   4.000
 1306SOL     OW 3930   0.598   4.453   3.994
 1306SOL    HW1 3931   0.622   4.522   3.926
 1306SOL    HW2 3932   0.520   4.486   4.048
 1307SOL     OW 3933   1.281   4.069   4.668
 1307SOL    HW1 3934   1.195   4.019   4.655
 1307SOL    HW2 3935   1.343   4.015   4.724
 1308SOL     OW 3936   1.041   4.425   4.153
 1308SOL    HW1 3937   1.067   4.421   4.249
 1308SOL    HW2 3938   0.956   4.374   4.139
 1309SOL     OW 3939   0.076   4.535   4.513
 1309SOL    HW1 3940   0.175   4.523   4.522
 1309SOL    HW2 3941   0.052   4.630   4.534
 1310SOL     OW 3942   0.865   4.072   3.919
 1310SOL    HW1 3943   0.924   4.135   3.870
 1310SOL    HW2 3944   0.884   3.978   3.890
 1311SOL     OW 3945   0.550   3.920   4.609
 1311SOL    HW1 3946   0.545   3.915   4.709
 1311SOL    HW2 3947   0.552   4.016   4.580
 1312SOL     OW 3948   1.458   4.459   4.452
 1312SOL    HW1 3949   1.453   4.394   4.527
 1312SOL    HW2 3950   1.538   4.518   4.465
 1313SOL     OW 3951   1.400   3.831   4.150
 1313SOL    HW1 3952   1.376   3.794   4.060
 1313SOL    HW2 3953   1.499   3.847   4.154
 1314SOL     OW 3954   0.382   4.424   4.204
 1314SOL    HW1 3955   0.427   4.334   4.201
 1314SOL    HW2 3956   0.288   4.413   4.237
 1315SOL     OW 3957   0.614   3.846   3.841
 1315SOL    HW1 3958   0.712   3.824   3.848
 1315SOL    HW2 3959   0.583   3.829   3.748
 1316SOL     OW 3960   0.539   3.788   4.236
 1316SOL    HW1 3961   0.458   3.789   4.294
 1316SOL    HW2 3962   0.542   3.871   4.181
 1317SOL     OW 3963   0.297   3.759   3.895
 1317SOL    HW1 3964   0.346   3.843   3.874
 1317SOL    HW2 3965   0.359   3.694   3.940
 1318SOL     OW 3966   0.935   3.960   4.204
 1318SOL    HW1 3967   0.887   4.001   4.126
 1318SOL    HW2 3968   1.034   3.958   4.185
 1319SOL     OW 3969   1.032   4.273   3.740
 1319SOL    HW1 3970   0.991   4.355   3.701
 1319SOL    HW2 3971   1.096   4.299   3.813
 1320SOL     OW 3972   0.866   4.178   4.366
 1320SOL    HW1 3973   0.834   4.250   4.304
 1320SOL    HW2 3974   0.890   4.097   4.313
 1321SOL     OW 3975   1.017   3.763   4.477
 1321SOL    HW1 3976   0.945   3.768   4.408
 1321SOL    HW2 3977   0.993   3.694   4.546
 1322SOL     OW 3978   1.857   4.557   4.101
 1322SOL    HW1 3979   1.899   4.493   4.165
 1322SOL    HW2 3980   1.819   4.506   4.023
 1323SOL     OW 3981   1.390   4.299   3.802
 1323SOL    HW1 3982   1.336   4.278   3.883
 1323SOL    HW2 3983   1.481   4.258   3.811
 1324SOL     OW 3984   0.527   3.980   4.052
 1324SOL    HW1 3985   0.554   3.921   3.977
 1324SOL    HW2 3986   0.527   4.075   4.021
 1325SOL     OW 3987   1.111   4.919   4.824
 1325SOL    HW1 3988   1.071   4.963   4.905
 1325SOL    HW2 3989   1.070   4.956   4.741
 1326SOL     OW 3990   0.566   4.261   4.589
 1326SOL    HW1 3991   0.578   4.327   4.515
 1326SOL    HW2 3992   0.612   4.295   4.672
 1327SOL     OW 3993   1.582   4.363   4.196
 1327SOL    HW1 3994   1.551   4.424   4.269
 1327SOL    HW2 3995   1.632   4.415   4.127
 1328SOL     OW 3996   0.573   4.594   4.753
 1328SOL    HW1 3997   0.617   4.683   4.744
 1328SOL    HW2 3998   0.510   4.594   4.830
 1329SOL     OW 3999   1.209   4.249   3.999
 1329SOL    HW1 4000   1.222   4.165   4.053
 1329SOL    HW2 4001   1.180   4.323   4.059
 1330SOL     OW 4002   0.732   4.358   4.788
 1330SOL    HW1 4003   0.791   4.332   4.712
 1330SOL    HW2 4004   0.704   4.454   4.777
 1331SOL     OW 4005   0.307   3.787   4.342
 1331SOL    HW1 4006   0.296   3.881   4.375
 1331SOL    HW2 4007   0.302   3.724   4.419
 1332SOL     OW 4008   1.622   4.091   4.098
 1332SOL    HW1 4009   1.624   4.015   4.162
 1332SOL    HW2 4010   1.574   4.168   4.138
 1333SOL     OW 4011   1.540   3.998   3.849
 1333SOL    HW1 4012   1.479   3.923   3.872
 1333SOL    HW2 4013   1.562   4.050   3.932
 1334SOL     OW 4014   1.303   4.562   3.766
 1334SOL    HW1 4015   1.337   4.469   3.781
 1334SOL    HW2 4016   1.321   4.589   3.671
 1335SOL     OW 4017   1.068   5.057   4.573
 1335SOL    HW1 4018   1.075   4.973   4.518
 1335SOL    HW2 4019   1.130   5.126   4.537
 1336SOL     OW 4020   0.319   4.534   4.673
 1336SOL    HW1 4021   0.412   4.570   4.678
 1336SOL    HW2 4022   0.313   4.449   4.725
 1337SOL     OW 4023   0.815   4.296   4.049
 1337SOL    HW1 4024   0.822   4.207   4.003
 1337SOL    HW2 4025   0.721   4.330   4.041
 1338SOL     OW 4026   0.473   4.224   3.915
 1338SOL    HW1 4027   0.534   4.304   3.919
 1338SOL    HW2 4028   0.378   4.255   3.922
 1339SOL     OW 4029   1.302   4.579   4.033
 1339SOL    HW1 4030   1.216   4.548   4.075
 1339SOL    HW2 4031   1.298   4.565   3.934
 1340SOL     OW 4032   1.726   3.859   4.247
 1340SOL    HW1 4033   1.799   3.842   4.180
 1340SOL    HW2 4034   1.695   3.772   4.285
 1341SOL     OW 4035   1.280   4.651   4.396
 1341SOL    HW1 4036   1.340   4.570   4.398
 1341SOL    HW2 4037   1.320   4.720   4.336
 1342SOL     OW 4038   1.841   3.899   4.687
 1342SOL    HW1 4039   1.880   3.814   4.651
 1342SOL    HW2 4040   1.743   3.901   4.668
 1343SOL     OW 4041   0.263   4.050   4.444
 1343SOL    HW1 4042   0.184   4.101   4.410
 1343SOL    HW2 4043   0.254   4.035   4.542
 1344SOL     OW 4044   0.916   4.634   4.015
 1344SOL    HW1 4045   0.979   4.672   3.947
 1344SOL    HW2 4046   0.956   4.551   4.054
 1345SOL     OW 4047   0.075   4.069   3.757
 1345SOL    HW1 4048  -0.017   4.041   3.728
 1345SOL    HW2 4049   0.106   4.146   3.701
 1346SOL     OW 4050   0.072   3.890   4.042
 1346SOL    HW1 4051   0.055   3.973   3.988
 1346SOL    HW2 4052   0.162   3.853   4.020
 1347SOL     OW 4053   1.674   4.607   4.978
 1347SOL    HW1 4054   1.647   4.518   4.941
 1347SOL    HW2 4055   1.675   4.675   4.905
 1348SOL     OW 4056   1.225   4.049   4.173
 1348SOL    HW1 4057   1.290   3.975   4.162
 1348SOL    HW2 4058   1.245   4.099   4.257
 1349SOL     OW 4059   0.594   4.469   4.376
 1349SOL    HW1 4060   0.644   4.554   4.357
 1349SOL    HW2 4061   0.506   4.471   4.328
 1350SOL     OW 4062   0.428   4.148   4.244
 1350SOL    HW1 4063   0.458   4.076   4.182
 1350SOL    HW2 4064   0.389   4.108   4.327
 1351SOL     OW 4065   1.352   3.776   3.892
 1351SOL    HW1 4066   1.387   3.735   3.808
 1351SOL    HW2 4067   1.262   3.738   3.912
 1352SOL     OW 4068   1.300   4.177   4.415
 1352SOL    HW1 4069   1.241   4.257   4.419
 1352SOL    HW2 4070   1.315   4.142   4.508
 1353SOL     OW 4071   1.593   3.945   4.606
 1353SOL    HW1 4072   1.509   3.944   4.660
 1353SOL    HW2 4073   1.595   4.028   4.550
 1354SOL     OW 4074   2.092   0.628   0.113
 1354SOL    HW1 4075   1.999   0.626   0.150
 1354SOL    HW2 4076   2.093   0.589   0.021
 1355SOL     OW 4077   2.087   0.275   0.996
 1355SOL    HW1 4078   2.122   0.258   1.088
 1355SOL    HW2 4079   1.999   0.230   0.984
 1356SOL     OW 4080   1.881   0.368   0.647
 1356SOL    HW1 4081   1.799   0.411   0.686
 1356SOL    HW2 4082   1.853   0.295   0.584
 1357SOL     OW 4083   2.431   1.275   1.165
 1357SOL    HW1 4084   2.338   1.268   1.128
 1357SOL    HW2 4085   2.442   1.364   1.209
 1358SOL     OW 4086   3.417   1.511   0.703
 1358SOL    HW1 4087   3.360   1.495   0.784
 1358SOL    HW2 4088   3.358   1.521   0.623
 1359SOL     OW 4089   2.997   0.703   0.717
 1359SOL    HW1 4090   3.054   0.781   0.692
 1359SOL    HW2 4091   2.937   0.729   0.793
 1360SOL     OW 4092   3.617   0.607   0.231
 1360SOL    HW1 4093   3.605   0.594   0.132
 1360SOL    HW2 4094   3.587   0.526   0.280
 1361SOL     OW 4095   2.630   1.144   1.023
 1361SOL    HW1 4096   2.552   1.161   1.083
 1361SOL    HW2 4097   2.664   1.231   0.987
 1362SOL     OW 4098   2.712   0.798   1.823
 1362SOL    HW1 4099   2.708   0.874   1.888
 1362SOL    HW2 4100   2.734   0.834   1.732
 1363SOL     OW 4101   2.547   1.012   0.665
 1363SOL    HW1 4102   2.616   0.996   0.735
 1363SOL    HW2 4103   2.474   1.069   0.703
 1364SOL     OW 4104   2.548   1.161   1.803
 1364SOL    HW1 4105   2.608   1.240   1.817
 1364SOL    HW2 4106   2.462   1.192   1.762
 1365SOL     OW 4107   2.197   1.435   1.061
 1365SOL    HW1 4108   2.119   1.404   1.008
 1365SOL    HW2 4109   2.255   1.493   1.004
 1366SOL     OW 4110   3.322   1.505   1.339
 1366SOL    HW1 4111   3.346   1.599   1.365
 1366SOL    HW2 4112   3.306   1.451   1.421
 1367SOL     OW 4113   2.300   0.392   1.499
 1367SOL    HW1 4114   2.382   0.336   1.508
 1367SOL    HW2 4115   2.219   0.334   1.503
 1368SOL     OW 4116   3.465   0.447   0.737
 1368SOL    HW1 4117   3.391   0.493   0.687
 1368SOL    HW2 4118   3.516   0.515   0.790
 1369SOL     OW 4119   2.093   1.713   0.483
 1369SOL    HW1 4120   2.127   1.790   0.537
 1369SOL    HW2 4121   2.137   1.713   0.393
 1370SOL     OW 4122   2.989   1.341   1.690
 1370SOL    HW1 4123   3.036   1.341   1.778
 1370SOL    HW2 4124   2.941   1.254   1.679
 1371SOL     OW 4125   2.092   1.434   0.538
 1371SOL    HW1 4126   2.066   1.530   0.538
 1371SOL    HW2 4127   2.021   1.380   0.583
 1372SOL     OW 4128   2.102   1.091   0.886
 1372SOL    HW1 4129   2.116   1.007   0.938
 1372SOL    HW2 4130   2.047   1.155   0.941
 1373SOL     OW 4131   2.482   1.786   1.439
 1373SOL    HW1 4132   2.390   1.769   1.474
 1373SOL    HW2 4133   2.510   1.878   1.465
 1374SOL     OW 4134   2.468   0.964   0.123
 1374SOL    HW1 4135   2.475   1.048   0.069
 1374SOL    HW2 4136   2.514   0.977   0.211
 1375SOL     OW 4137   3.456   0.114   1.480
 1375SOL    HW1 4138   3.438   0.181   1.408
 1375SOL    HW2 4139   3.453   0.160   1.569
 1376SOL     OW 4140   1.984   0.643   0.563
 1376SOL    HW1 4141   1.939   0.555   0.580
 1376SOL    HW2 4142   1.983   0.697   0.647
 1377SOL     OW 4143   3.704   1.767   0.359
 1377SOL    HW1 4144   3.758   1.738   0.439
 1377SOL    HW2 4145   3.734   1.857   0.330
 1378SOL     OW 4146   3.551   0.922   0.612
 1378SOL    HW1 4147   3.646   0.893   0.620
 1378SOL    HW2 4148   3.543   0.987   0.537
 1379SOL     OW 4149   3.503   1.108   0.432
 1379SOL    HW1 4150   3.589   1.110   0.380
 1379SOL    HW2 4151   3.517   1.155   0.520
 1380SOL     OW 4152   1.975   0.737   1.597
 1380SOL    HW1 4153   2.063   0.724   1.642
 1380SOL    HW2 4154   1.962   0.834   1.575
 1381SOL     OW 4155   2.475   1.365   0.726
 1381SOL    HW1 4156   2.426   1.278   0.735
 1381SOL    HW2 4157   2.452   1.408   0.639
 1382SOL     OW 4158   3.155   1.228   1.423
 1382SOL    HW1 4159   3.192   1.155   1.365
 1382SOL    HW2 4160   3.207   1.233   1.508
 1383SOL     OW 4161   2.671   0.004   0.502
 1383SOL    HW1 4162   2.711   0.095   0.493
 1383SOL    HW2 4163   2.571   0.012   0.508
 1384SOL     OW 4164   2.059   0.976   1.264
 1384SOL    HW1 4165   2.148   0.931   1.250
 1384SOL    HW2 4166   1.986   0.911   1.245
 1385SOL     OW 4167   3.387   0.999   0.190
 1385SOL    HW1 4168   3.324   0.923   0.203
 1385SOL    HW2 4169   3.435   1.017   0.276
 1386SOL     OW 4170   3.049   1.792   1.616
 1386SOL    HW1 4171   3.073   1.852   1.540
 1386SOL    HW2 4172   3.056   1.697   1.586
 1387SOL     OW 4173   2.179   0.251   1.801
 1387SOL    HW1 4174   2.250   0.322   1.807
 1387SOL    HW2 4175   2.091   0.290   1.829
 1388SOL     OW 4176   3.328   1.417   0.953
 1388SOL    HW1 4177   3.269   1.423   1.033
 1388SOL    HW2 4178   3.313   1.329   0.907
 1389SOL     OW 4179   3.529   1.714   0.572
 1389SOL    HW1 4180   3.488   1.691   0.484
 1389SOL    HW2 4181   3.511   1.640   0.637
 1390SOL     OW 4182   2.460   0.729   0.270
 1390SOL    HW1 4183   2.484   0.798   0.202
 1390SOL    HW2 4184   2.382   0.762   0.324
 1391SOL     OW 4185   3.143   0.345   0.944
 1391SOL    HW1 4186   3.057   0.295   0.931
 1391SOL    HW2 4187   3.205   0.291   1.000
 1392SOL     OW 4188   3.438   1.662   0.307
 1392SOL    HW1 4189   3.527   1.708   0.310
 1392SOL    HW2 4190   3.417   1.638   0.212
 1393SOL     OW 4191   2.669   0.605   1.465
 1393SOL    HW1 4192   2.622   0.602   1.554
 1393SOL    HW2 4193   2.618   0.550   1.399
 1394SOL     OW 4194   3.256   0.469   1.674
 1394SOL    HW1 4195   3.236   0.512   1.762
 1394SOL    HW2 4196   3.334   0.407   1.683
 1395SOL     OW 4197   2.835   0.890   1.572
 1395SOL    HW1 4198   2.881   0.806   1.543
 1395SOL    HW2 4199   2.779   0.924   1.497
 1396SOL     OW 4200   2.853   0.410   1.242
 1396SOL    HW1 4201   2.776   0.444   1.296
 1396SOL    HW2 4202   2.819   0.359   1.163
 1397SOL     OW 4203   2.903   0.701   0.429
 1397SOL    HW1 4204   2.929   0.697   0.525
 1397SOL    HW2 4205   2.818   0.650   0.415
 1398SOL     OW 4206   1.938   0.811   0.789
 1398SOL    HW1 4207   2.037   0.799   0.798
 1398SOL    HW2 4208   1.914   0.906   0.810
 1399SOL     OW 4209   1.992   1.821   1.571
 1399SOL    HW1 4210   1.982   1.806   1.670
 1399SOL    HW2 4211   1.906   1.857   1.535
 1400SOL     OW 4212   2.727   0.348   0.195
 1400SOL    HW1 4213   2.786   0.411   0.146
 1400SOL    HW2 4214   2.746   0.254   0.166
 1401SOL     OW 4215   3.581   0.585   1.831
 1401SOL    HW1 4216   3.555   0.674   1.795
 1401SOL    HW2 4217   3.579   0.517   1.758
 1402SOL     OW 4218   3.224   1.144   0.545
 1402SOL    HW1 4219   3.307   1.115   0.497
 1402SOL    HW2 4220   3.175   1.211   0.489
 1403SOL     OW 4221   2.412   0.196   0.885
 1403SOL    HW1 4222   2.407   0.191   0.985
 1403SOL    HW2 4223   2.414   0.292   0.856
 1404SOL     OW 4224   2.870   1.456   0.477
 1404SOL    HW1 4225   2.824   1.528   0.425
 1404SOL    HW2 4226   2.866   1.476   0.575
 1405SOL     OW 4227   2.213   1.801   0.853
 1405SOL    HW1 4228   2.263   1.715   0.859
 1405SOL    HW2 4229   2.278   1.878   0.850
 1406SOL     OW 4230   3.657   1.066   0.873
 1406SOL    HW1 4231   3.595   1.051   0.797
 1406SOL    HW2 4232   3.605   1.077   0.958
 1407SOL     OW 4233   3.089   1.550   1.506
 1407SOL    HW1 4234   3.095   1.473   1.570
 1407SOL    HW2 4235   3.037   1.524   1.426
 1408SOL     OW 4236   2.183   0.943   0.242
 1408SOL    HW1 4237   2.265   0.982   0.200
 1408SOL    HW2 4238   2.156   0.861   0.193
 1409SOL     OW 4239   3.320   0.735   0.728
 1409SOL    HW1 4240   3.315   0.670   0.803
 1409SOL    HW2 4241   3.400   0.794   0.741
 1410SOL     OW 4242   2.323   1.266   1.727
 1410SOL    HW1 4243   2.273   1.267   1.641
 1410SOL    HW2 4244   2.260   1.248   1.803
 1411SOL     OW 4245   2.973   1.776   0.237
 1411SOL    HW1 4246   2.913   1.714   0.287
 1411SOL    HW2 4247   3.004   1.732   0.152
 1412SOL     OW 4248   2.064   0.285   1.498
 1412SOL    HW1 4249   1.984   0.345   1.485
 1412SOL    HW2 4250   2.054   0.236   1.584
 1413SOL     OW 4251   3.494   1.377   0.081
 1413SOL    HW1 4252   3.462   1.471   0.071
 1413SOL    HW2 4253   3.418   1.314   0.069
 1414SOL     OW 4254   2.326   1.743   0.323
 1414SOL    HW1 4255   2.359   1.782   0.409
 1414SOL    HW2 4256   2.402   1.736   0.258
 1415SOL     OW 4257   3.262   0.107   0.426
 1415SOL    HW1 4258   3.238   0.070   0.336
 1415SOL    HW2 4259   3.361   0.123   0.430
 1416SOL     OW 4260   2.111   1.785   1.241
 1416SOL    HW1 4261   2.168   1.720   1.291
 1416SOL    HW2 4262   2.095   1.752   1.148
 1417SOL     OW 4263   2.802   1.698   0.904
 1417SOL    HW1 4264   2.882   1.641   0.925
 1417SOL    HW2 4265   2.753   1.658   0.827
 1418SOL     OW 4266   2.244   0.700   0.480
 1418SOL    HW1 4267   2.289   0.610   0.477
 1418SOL    HW2 4268   2.150   0.689   0.513
 1419SOL     OW 4269   3.409   0.222   1.729
 1419SOL    HW1 4270   3.404   0.259   1.821
 1419SOL    HW2 4271   3.337   0.153   1.717
 1420SOL     OW 4272   2.476   0.122   0.117
 1420SOL    HW1 4273   2.574   0.100   0.124
 1420SOL    HW2 4274   2.445   0.105   0.024
 1421SOL     OW 4275   2.643   0.264   1.749
 1421SOL    HW1 4276   2.710   0.203   1.792
 1421SOL    HW2 4277   2.570   0.283   1.814
 1422SOL     OW 4278   2.750   1.514   1.195
 1422SOL    HW1 4279   2.727   1.489   1.101
 1422SOL    HW2 4280   2.811   1.445   1.234
 1423SOL     OW 4281   3.213   0.590   1.433
 1423SOL    HW1 4282   3.241   0.547   1.518
 1423SOL    HW2 4283   3.238   0.686   1.434
 1424SOL     OW 4284   2.665   1.402   0.924
 1424SOL    HW1 4285   2.755   1.416   0.882
 1424SOL    HW2 4286   2.594   1.404   0.853
 1425SOL     OW 4287   2.784   0.503   0.899
 1425SOL    HW1 4288   2.759   0.494   0.803
 1425SOL    HW2 4289   2.832   0.421   0.930
 1426SOL     OW 4290   2.401   0.064   0.512
 1426SOL    HW1 4291   2.320   0.065   0.570
 1426SOL    HW2 4292   2.404   0.147   0.457
 1427SOL     OW 4293   3.296   1.188   0.041
 1427SOL    HW1 4294   3.328   1.112   0.098
 1427SOL    HW2 4295   3.204   1.215   0.071
 1428SOL     OW 4296   2.159   0.035   0.171
 1428SOL    HW1 4297   2.208   0.119   0.150
 1428SOL    HW2 4298   2.221  -0.030   0.216
 1429SOL     OW 4299   2.797   0.236   0.480
 1429SOL    HW1 4300   2.749   0.277   0.402
 1429SOL    HW2 4301   2.896   0.234   0.461
 1430SOL     OW 4302   2.938   0.683   1.464
 1430SOL    HW1 4303   2.858   0.622   1.467
 1430SOL    HW2 4304   3.019   0.630   1.440
 1431SOL     OW 4305   3.089   1.570   0.793
 1431SOL    HW1 4306   3.110   1.644   0.728
 1431SOL    HW2 4307   3.157   1.570   0.866
 1432SOL     OW 4308   2.321   1.152   0.741
 1432SOL    HW1 4309   2.250   1.125   0.806
 1432SOL    HW2 4310   2.295   1.124   0.648
 1433SOL     OW 4311   3.133   1.797   0.591
 1433SOL    HW1 4312   3.177   1.861   0.527
 1433SOL    HW2 4313   3.083   1.849   0.661
 1434SOL     OW 4314   2.894   0.549   0.016
 1434SOL    HW1 4315   2.853   0.631  -0.023
 1434SOL    HW2 4316   2.958   0.575   0.089
 1435SOL     OW 4317   1.940   0.556   1.386
 1435SOL    HW1 4318   2.032   0.555   1.345
 1435SOL    HW2 4319   1.934   0.630   1.453
 1436SOL     OW 4320   2.423   0.222   1.147
 1436SOL    HW1 4321   2.461   0.138   1.184
 1436SOL    HW2 4322   2.335   0.241   1.191
 1437SOL     OW 4323   2.728   0.454   0.642
 1437SOL    HW1 4324   2.696   0.526   0.580
 1437SOL    HW2 4325   2.752   0.373   0.589
 1438SOL     OW 4326   2.879   0.039   0.753
 1438SOL    HW1 4327   2.807   0.044   0.684
 1438SOL    HW2 4328   2.855  -0.030   0.822
 1439SOL     OW 4329   3.291   1.173   0.867
 1439SOL    HW1 4330   3.236   1.089   0.860
 1439SOL    HW2 4331   3.317   1.202   0.775
 1440SOL     OW 4332   3.328   0.590   0.992
 1440SOL    HW1 4333   3.298   0.495   0.999
 1440SOL    HW2 4334   3.401   0.606   1.058
 1441SOL     OW 4335   3.719   0.833   0.377
 1441SOL    HW1 4336   3.761   0.769   0.441
 1441SOL    HW2 4337   3.681   0.782   0.299
 1442SOL     OW 4338   2.350   1.385   0.174
 1442SOL    HW1 4339   2.263   1.370   0.221
 1442SOL    HW2 4340   2.333   1.411   0.079
 1443SOL     OW 4341   3.526   1.280   0.657
 1443SOL    HW1 4342   3.625   1.288   0.671
 1443SOL    HW2 4343   3.481   1.364   0.688
 1444SOL     OW 4344   3.252   0.575   0.078
 1444SOL    HW1 4345   3.198   0.554   0.159
 1444SOL    HW2 4346   3.343   0.534   0.087
 1445SOL     OW 4347   2.389   0.256   0.328
 1445SOL    HW1 4348   2.416   0.197   0.253
 1445SOL    HW2 4349   2.389   0.351   0.297
 1446SOL     OW 4350   3.616   1.223   1.588
 1446SOL    HW1 4351   3.707   1.184   1.575
 1446SOL    HW2 4352   3.624   1.319   1.612
 1447SOL     OW 4353   2.926   1.347   1.340
 1447SOL    HW1 4354   2.846   1.324   1.395
 1447SOL    HW2 4355   3.009   1.321   1.389
 1448SOL     OW 4356   3.454   1.629   1.625
 1448SOL    HW1 4357   3.481   1.663   1.535
 1448SOL    HW2 4358   3.533   1.591   1.671
 1449SOL     OW 4359   2.973   1.195   1.100
 1449SOL    HW1 4360   2.933   1.239   1.181
 1449SOL    HW2 4361   2.932   1.232   1.017
 1450SOL     OW 4362   3.500   1.099   1.079
 1450SOL    HW1 4363   3.505   1.180   1.138
 1450SOL    HW2 4364   3.414   1.101   1.028
 1451SOL     OW 4365   2.777   0.089   1.402
 1451SOL    HW1 4366   2.802   0.069   1.307
 1451SOL    HW2 4367   2.849   0.145   1.444
 1452SOL     OW 4368   2.842   1.116   1.719
 1452SOL    HW1 4369   2.743   1.122   1.729
 1452SOL    HW2 4370   2.865   1.036   1.663
 1453SOL     OW 4371   2.567   1.050   0.368
 1453SOL    HW1 4372   2.553   1.057   0.467
 1453SOL    HW2 4373   2.651   0.999   0.350
 1454SOL     OW 4374   2.272   0.813   1.251
 1454SOL    HW1 4375   2.358   0.825   1.301
 1454SOL    HW2 4376   2.230   0.726   1.278
 1455SOL     OW 4377   3.136   0.386   1.262
 1455SOL    HW1 4378   3.157   0.460   1.326
 1455SOL    HW2 4379   3.047   0.403   1.219
 1456SOL     OW 4380   1.926   1.564   1.331
 1456SOL    HW1 4381   1.880   1.646   1.297
 1456SOL    HW2 4382   2.024   1.583   1.340
 1457SOL     OW 4383   2.229   1.100   0.501
 1457SOL    HW1 4384   2.222   1.183   0.445
 1457SOL    HW2 4385   2.233   1.020   0.441
 1458SOL     OW 4386   2.428   0.537   0.865
 1458SOL    HW1 4387   2.440   0.603   0.791
 1458SOL    HW2 4388   2.474   0.571   0.948
 1459SOL     OW 4389   3.114   1.348   0.388
 1459SOL    HW1 4390   3.164   1.425   0.428
 1459SOL    HW2 4391   3.019   1.350   0.420
 1460SOL     OW 4392   3.134   1.445   1.142
 1460SOL    HW1 4393   3.181   1.458   1.229
 1460SOL    HW2 4394   3.068   1.371   1.151
 1461SOL     OW 4395   3.444   0.639   0.472
 1461SOL    HW1 4396   3.413   0.700   0.545
 1461SOL    HW2 4397   3.494   0.691   0.403
 1462SOL     OW 4398   2.216   1.510   1.329
 1462SOL    HW1 4399   2.195   1.466   1.242
 1462SOL    HW2 4400   2.313   1.536   1.332
 1463SOL     OW 4401   2.264   0.751   1.598
 1463SOL    HW1 4402   2.332   0.806   1.551
 1463SOL    HW2 4403   2.304   0.663   1.625
 1464SOL     OW 4404   3.449   0.779   1.670
 1464SOL    HW1 4405   3.357   0.817   1.665
 1464SOL    HW2 4406   3.509   0.826   1.605
 1465SOL     OW 4407   2.875   0.105   1.770
 1465SOL    HW1 4408   2.881   0.190   1.718
 1465SOL    HW2 4409   2.907   0.029   1.713
 1466SOL     OW 4410   2.366   0.050   1.740
 1466SOL    HW1 4411   2.324  -0.007   1.670
 1466SOL    HW2 4412   2.300   0.119   1.772
 1467SOL     OW 4413   2.435   0.870   1.029
 1467SOL    HW1 4414   2.479   0.959   1.020
 1467SOL    HW2 4415   2.372   0.870   1.106
 1468SOL     OW 4416   3.222   0.862   1.045
 1468SOL    HW1 4417   3.147   0.862   0.979
 1468SOL    HW2 4418   3.259   0.770   1.054
 1469SOL     OW 4419   3.071   0.525   0.275
 1469SOL    HW1 4420   3.084   0.441   0.329
 1469SOL    HW2 4421   3.042   0.599   0.335
 1470SOL     OW 4422   2.169   0.213   1.231
 1470SOL    HW1 4423   2.146   0.250   1.321
 1470SOL    HW2 4424   2.139   0.118   1.225
 1471SOL     OW 4425   1.899   1.310   1.282
 1471SOL    HW1 4426   1.952   1.261   1.350
 1471SOL    HW2 4427   1.921   1.408   1.287
 1472SOL     OW 4428   2.594   0.634   1.064
 1472SOL    HW1 4429   2.653   0.608   0.988
 1472SOL    HW2 4430   2.566   0.730   1.053
 1473SOL     OW 4431   3.590   0.935   1.854
 1473SOL    HW1 4432   3.544   0.928   1.765
 1473SOL    HW2 4433   3.528   0.979   1.920
 1474SOL     OW 4434   2.169   0.063   0.618
 1474SOL    HW1 4435   2.158   0.157   0.651
 1474SOL    HW2 4436   2.164   0.000   0.695
 1475SOL     OW 4437   3.484   0.367   0.374
 1475SOL    HW1 4438   3.486   0.291   0.438
 1475SOL    HW2 4439   3.436   0.444   0.414
 1476SOL     OW 4440   2.885   0.766   0.966
 1476SOL    HW1 4441   2.900   0.787   1.062
 1476SOL    HW2 4442   2.855   0.671   0.957
 1477SOL     OW 4443   2.842   1.573   1.700
 1477SOL    HW1 4444   2.822   1.617   1.612
 1477SOL    HW2 4445   2.881   1.482   1.684
 1478SOL     OW 4446   3.721   1.518   1.605
 1478SOL    HW1 4447   3.735   1.545   1.510
 1478SOL    HW2 4448   3.804   1.540   1.658
 1479SOL     OW 4449   2.212   0.898   1.804
 1479SOL    HW1 4450   2.288   0.942   1.852
 1479SOL    HW2 4451   2.247   0.851   1.722
 1480SOL     OW 4452   3.402   0.274   0.125
 1480SOL    HW1 4453   3.341   0.199   0.148
 1480SOL    HW2 4454   3.424   0.326   0.208
 1481SOL     OW 4455   3.165   0.838   0.042
 1481SOL    HW1 4456   3.199   0.745   0.057
 1481SOL    HW2 4457   3.183   0.865  -0.053
 1482SOL     OW 4458   2.930   1.333   0.849
 1482SOL    HW1 4459   2.937   1.249   0.794
 1482SOL    HW2 4460   2.992   1.402   0.813
 1483SOL     OW 4461   2.181   0.810   0.949
 1483SOL    HW1 4462   2.274   0.846   0.954
 1483SOL    HW2 4463   2.175   0.725   1.001
 1484SOL     OW 4464   2.201   0.509   1.006
 1484SOL    HW1 4465   2.149   0.426   0.989
 1484SOL    HW2 4466   2.278   0.514   0.942
 1485SOL     OW 4467   3.000   0.380   1.678
 1485SOL    HW1 4468   2.955   0.443   1.742
 1485SOL    HW2 4469   3.093   0.411   1.661
 1486SOL     OW 4470   3.022   0.207   1.477
 1486SOL    HW1 4471   3.022   0.271   1.554
 1486SOL    HW2 4472   3.050   0.255   1.394
 1487SOL     OW 4473   1.870   1.326   0.200
 1487SOL    HW1 4474   1.777   1.347   0.169
 1487SOL    HW2 4475   1.880   1.227   0.213
 1488SOL     OW 4476   1.950   1.801   0.927
 1488SOL    HW1 4477   1.908   1.715   0.900
 1488SOL    HW2 4478   2.044   1.804   0.893
 1489SOL     OW 4479   2.366   1.568   0.910
 1489SOL    HW1 4480   2.432   1.642   0.919
 1489SOL    HW2 4481   2.410   1.489   0.868
 1490SOL     OW 4482   2.864   0.796   1.238
 1490SOL    HW1 4483   2.905   0.764   1.324
 1490SOL    HW2 4484   2.768   0.769   1.235
 1491SOL     OW 4485   1.902   0.544   1.114
 1491SOL    HW1 4486   1.987   0.511   1.073
 1491SOL    HW2 4487   1.915   0.559   1.212
 1492SOL     OW 4488   2.051   0.520   1.722
 1492SOL    HW1 4489   2.110   0.480   1.652
 1492SOL    HW2 4490   1.993   0.591   1.681
 1493SOL     OW 4491   3.231   0.950   1.660
 1493SOL    HW1 4492   3.270   1.039   1.680
 1493SOL    HW2 4493   3.241   0.930   1.563
 1494SOL     OW 4494   2.677   0.572   0.325
 1494SOL    HW1 4495   2.684   0.483   0.279
 1494SOL    HW2 4496   2.583   0.606   0.317
 1495SOL     OW 4497   3.519   0.604   1.206
 1495SOL    HW1 4498   3.481   0.535   1.268
 1495SOL    HW2 4499   3.601   0.568   1.162
 1496SOL     OW 4500   2.114   1.564   1.744
 1496SOL    HW1 4501   2.084   1.621   1.820
 1496SOL    HW2 4502   2.107   1.467   1.770
 1497SOL     OW 4503   2.533   0.464   1.269
 1497SOL    HW1 4504   2.499   0.375   1.239
 1497SOL    HW2 4505   2.559   0.518   1.189
 1498SOL     OW 4506   2.792   1.678   1.465
 1498SOL    HW1 4507   2.768   1.660   1.370
 1498SOL    HW2 4508   2.822   1.772   1.475
 1499SOL     OW 4509   2.335   0.500   0.191
 1499SOL    HW1 4510   2.396   0.580   0.195
 1499SOL    HW2 4511   2.240   0.531   0.198
 1500SOL     OW 4512   2.021   1.137   1.466
 1500SOL    HW1 4513   2.043   1.076   1.542
 1500SOL    HW2 4514   2.031   1.088   1.380
 1501SOL     OW 4515   3.209   1.059   1.234
 1501SOL    HW1 4516   3.233   0.996   1.160
 1501SOL    HW2 4517   3.119   1.099   1.216
 1502SOL     OW 4518   3.164   0.855   0.309
 1502SOL    HW1 4519   3.078   0.824   0.351
 1502SOL    HW2 4520   3.160   0.841   0.210
 1503SOL     OW 4521   3.621   1.747   1.154
 1503SOL    HW1 4522   3.682   1.777   1.081
 1503SOL    HW2 4523   3.583   1.658   1.132
 1504SOL     OW 4524   3.114   1.731   1.128
 1504SOL    HW1 4525   3.198   1.736   1.074
 1504SOL    HW2 4526   3.091   1.635   1.146
 1505SOL     OW 4527   1.945   1.258   1.022
 1505SOL    HW1 4528   1.940   1.257   1.122
 1505SOL    HW2 4529   1.862   1.217   0.984
 1506SOL     OW 4530   2.550   1.662   1.716
 1506SOL    HW1 4531   2.494   1.743   1.725
 1506SOL    HW2 4532   2.602   1.666   1.630
 1507SOL     OW 4533   2.765   0.086   0.133
 1507SOL    HW1 4534   2.816   0.087   0.047
 1507SOL    HW2 4535   2.821   0.044   0.204
 1508SOL     OW 4536   3.588   0.135   0.523
 1508SOL    HW1 4537   3.661   0.118   0.456
 1508SOL    HW2 4538   3.557   0.048   0.561
 1509SOL     OW 4539   3.250   1.573   0.477
 1509SOL    HW1 4540   3.317   1.585   0.403
 1509SOL    HW2 4541   3.210   1.662   0.500
 1510SOL     OW 4542   1.992   1.794   1.851
 1510SOL    HW1 4543   1.951   1.720   1.904
 1510SOL    HW2 4544   2.056   1.845   1.909
 1511SOL     OW 4545   3.142   0.927   0.672
 1511SOL    HW1 4546   3.202   0.846   0.674
 1511SOL    HW2 4547   3.182   0.996   0.612
 1512SOL     OW 4548   2.692   1.273   1.422
 1512SOL    HW1 4549   2.687   1.306   1.517
 1512SOL    HW2 4550   2.606   1.292   1.376
 1513SOL     OW 4551   2.534   1.616   0.154
 1513SOL    HW1 4552   2.543   1.626   0.055
 1513SOL    HW2 4553   2.494   1.527   0.175
 1514SOL     OW 4554   3.512   1.720   1.394
 1514SOL    HW1 4555   3.565   1.730   1.310
 1514SOL    HW2 4556   3.485   1.810   1.428
 1515SOL     OW 4557   3.703   0.175   0.963
 1515SOL    HW1 4558   3.742   0.090   0.927
 1515SOL    HW2 4559   3.605   0.177   0.944
 1516SOL     OW 4560   2.125   0.326   0.720
 1516SOL    HW1 4561   2.046   0.377   0.686
 1516SOL    HW2 4562   2.116   0.311   0.818
 1517SOL     OW 4563   3.056   1.612   0.031
 1517SOL    HW1 4564   3.062   1.519   0.068
 1517SOL    HW2 4565   2.997   1.612  -0.049
 1518SOL     OW 4566   2.684   1.002   1.372
 1518SOL    HW1 4567   2.724   1.001   1.280
 1518SOL    HW2 4568   2.694   1.094   1.412
 1519SOL     OW 4569   2.778   0.910   0.291
 1519SOL    HW1 4570   2.841   0.948   0.223
 1519SOL    HW2 4571   2.818   0.827   0.330
 1520SOL     OW 4572   3.366   1.607   0.044
 1520SOL    HW1 4573   3.274   1.644   0.051
 1520SOL    HW2 4574   3.404   1.627  -0.046
 1521SOL     OW 4575   2.234   1.288   1.490
 1521SOL    HW1 4576   2.221   1.381   1.456
 1521SOL    HW2 4577   2.150   1.236   1.477
 1522SOL     OW 4578   3.476   1.292   1.289
 1522SOL    HW1 4579   3.536   1.295   1.369
 1522SOL    HW2 4580   3.401   1.356   1.302
 1523SOL     OW 4581   2.901   1.098   0.696
 1523SOL    HW1 4582   2.831   1.051   0.750
 1523SOL    HW2 4583   2.960   1.030   0.653
 1524SOL     OW 4584   2.876   0.236   0.971
 1524SOL    HW1 4585   2.868   0.200   0.878
 1524SOL    HW2 4586   2.874   0.160   1.036
 1525SOL     OW 4587   2.452   1.487   0.491
 1525SOL    HW1 4588   2.494   1.429   0.421
 1525SOL    HW2 4589   2.408   1.566   0.447
 1526SOL     OW 4590   3.571   0.385   1.381
 1526SOL    HW1 4591   3.644   0.454   1.385
 1526SOL    HW2 4592   3.599   0.310   1.322
 1527SOL     OW 4593   2.117   1.348   0.290
 1527SOL    HW1 4594   2.021   1.349   0.263
 1527SOL    HW2 4595   2.129   1.401   0.374
 1528SOL     OW 4596   1.967   1.013   1.726
 1528SOL    HW1 4597   1.890   0.980   1.780
 1528SOL    HW2 4598   2.052   0.983   1.768
 1529SOL     OW 4599   2.534   0.203   1.489
 1529SOL    HW1 4600   2.624   0.187   1.449
 1529SOL    HW2 4601   2.542   0.208   1.588
 1530SOL     OW 4602   3.302   0.856   1.398
 1530SOL    HW1 4603   3.245   0.908   1.335
 1530SOL    HW2 4604   3.398   0.868   1.374
 1531SOL     OW 4605   3.045   1.335   0.119
 1531SOL    HW1 4606   2.946   1.324   0.121
 1531SOL    HW2 4607   3.079   1.350   0.212
 1532SOL     OW 4608   2.475   0.842   1.431
 1532SOL    HW1 4609   2.531   0.923   1.414
 1532SOL    HW2 4610   2.534   0.762   1.434
 1533SOL     OW 4611   3.355   1.767   0.959
 1533SOL    HW1 4612   3.388   1.831   0.890
 1533SOL    HW2 4613   3.421   1.761   1.034
 1534SOL     OW 4614   2.578   0.565   1.708
 1534SOL    HW1 4615   2.597   0.630   1.782
 1534SOL    HW2 4616   2.638   0.485   1.717
 1535SOL     OW 4617   3.312   1.220   1.633
 1535SOL    HW1 4618   3.303   1.210   1.732
 1535SOL    HW2 4619   3.408   1.213   1.607
 1536SOL     OW 4620   2.252   1.741   1.560
 1536SOL    HW1 4621   2.161   1.782   1.558
 1536SOL    HW2 4622   2.245   1.647   1.592
 1537SOL     OW 4623   3.536   0.883   1.254
 1537SOL    HW1 4624   3.509   0.794   1.217
 1537SOL    HW2 4625   3.537   0.951   1.181
 1538SOL     OW 4626   3.087   0.325   0.449
 1538SOL    HW1 4627   3.152   0.251   0.438
 1538SOL    HW2 4628   3.107   0.375   0.533
 1539SOL     OW 4629   2.456   0.745   0.652
 1539SOL    HW1 4630   2.506   0.830   0.633
 1539SOL    HW2 4631   2.368   0.747   0.604
 1540SOL     OW 4632   3.639   0.342   1.642
 1540SOL    HW1 4633   3.622   0.373   1.548
 1540SOL    HW2 4634   3.555   0.305   1.680
 1541SOL     OW 4635   3.592   0.934   1.517
 1541SOL    HW1 4636   3.630   1.025   1.532
 1541SOL    HW2 4637   3.584   0.917   1.418
 1542SOL     OW 4638   2.721   1.374   0.016
 1542SOL    HW1 4639   2.675   1.389   0.104
 1542SOL    HW2 4640   2.765   1.459  -0.014
 1543SOL     OW 4641   2.523   1.790   0.953
 1543SOL    HW1 4642   2.477   1.878   0.940
 1543SOL    HW2 4643   2.622   1.802   0.946
 1544SOL     OW 4644   2.721   0.956   0.861
 1544SOL    HW1 4645   2.775   0.887   0.909
 1544SOL    HW2 4646   2.689   1.025   0.927
 1545SOL     OW 4647   2.945   0.984   0.087
 1545SOL    HW1 4648   2.922   1.037   0.005
 1545SOL    HW2 4649   3.026   0.928   0.068
 1546SOL     OW 4650   3.723   1.569   0.851
 1546SOL    HW1 4651   3.652   1.557   0.781
 1546SOL    HW2 4652   3.724   1.490   0.911
 1547SOL     OW 4653   2.083   1.314   1.844
 1547SOL    HW1 4654   2.018   1.241   1.823
 1547SOL    HW2 4655   2.087   1.328   1.942
 1548SOL     OW 4656   1.941   1.240   0.653
 1548SOL    HW1 4657   1.940   1.193   0.741
 1548SOL    HW2 4658   2.023   1.212   0.602
 1549SOL     OW 4659   2.534   1.391   1.624
 1549SOL    HW1 4660   2.456   1.341   1.662
 1549SOL    HW2 4661   2.531   1.486   1.655
 1550SOL     OW 4662   3.686   0.192   1.227
 1550SOL    HW1 4663   3.682   0.102   1.271
 1550SOL    HW2 4664   3.689   0.181   1.128
 1551SOL     OW 4665   2.290   0.424   0.520
 1551SOL    HW1 4666   2.320   0.352   0.458
 1551SOL    HW2 4667   2.251   0.384   0.603
 1552SOL     OW 4668   3.567   1.487   1.104
 1552SOL    HW1 4669   3.474   1.462   1.077
 1552SOL    HW2 4670   3.593   1.437   1.186
 1553SOL     OW 4671   2.179   0.547   1.280
 1553SOL    HW1 4672   2.217   0.488   1.352
 1553SOL    HW2 4673   2.219   0.521   1.192
 1554SOL     OW 4674   2.674   1.586   0.687
 1554SOL    HW1 4675   2.706   1.596   0.593
 1554SOL    HW2 4676   2.595   1.524   0.689
 1555SOL     OW 4677   3.286   0.214   1.112
 1555SOL    HW1 4678   3.338   0.149   1.167
 1555SOL    HW2 4679   3.237   0.277   1.173
 1556SOL     OW 4680   2.863   0.034   1.154
 1556SOL    HW1 4681   2.800  -0.038   1.123
 1556SOL    HW2 4682   2.956  -0.002   1.154
 1557SOL     OW 4683   2.632   1.330   0.301
 1557SOL    HW1 4684   2.586   1.243   0.318
 1557SOL    HW2 4685   2.723   1.327   0.342
 1558SOL     OW 4686   2.480   1.567   1.284
 1558SOL    HW1 4687   2.475   1.649   1.341
 1558SOL    HW2 4688   2.569   1.564   1.239
 1559SOL     OW 4689   3.214   0.052   0.168
 1559SOL    HW1 4690   3.249   0.011   0.084
 1559SOL    HW2 4691   3.124   0.014   0.188
 1560SOL     OW 4692   3.162   0.453   0.691
 1560SOL    HW1 4693   3.103   0.533   0.695
 1560SOL    HW2 4694   3.177   0.418   0.784
 1561SOL     OW 4695   3.455   0.221   0.882
 1561SOL    HW1 4696   3.371   0.220   0.936
 1561SOL    HW2 4697   3.457   0.304   0.826
 1562SOL     OW 4698   1.901   1.077   0.300
 1562SOL    HW1 4699   2.000   1.066   0.291
 1562SOL    HW2 4700   1.861   0.991   0.332
 1563SOL     OW 4701   2.737   1.646   0.337
 1563SOL    HW1 4702   2.660   1.611   0.283
 1563SOL    HW2 4703   2.705   1.717   0.399
 1564SOL     OW 4704   2.092   0.628   1.975
 1564SOL    HW1 4705   1.999   0.626   2.012
 1564SOL    HW2 4706   2.093   0.589   1.883
 1565SOL     OW 4707   2.087   0.275   2.858
 1565SOL    HW1 4708   2.122   0.258   2.950
 1565SOL    HW2 4709   1.999   0.230   2.846
 1566SOL     OW 4710   1.881   0.368   2.509
 1566SOL    HW1 4711   1.799   0.411   2.548
 1566SOL    HW2 4712   1.853   0.295   2.446
 1567SOL     OW 4713   2.431   1.275   3.027
 1567SOL    HW1 4714   2.338   1.268   2.990
 1567SOL    HW2 4715   2.442   1.364   3.071
 1568SOL     OW 4716   3.417   1.511   2.565
 1568SOL    HW1 4717   3.360   1.495   2.646
 1568SOL    HW2 4718   3.358   1.521   2.485
 1569SOL     OW 4719   2.997   0.703   2.579
 1569SOL    HW1 4720   3.054   0.781   2.554
 1569SOL    HW2 4721   2.937   0.729   2.655
 1570SOL     OW 4722   3.617   0.607   2.093
 1570SOL    HW1 4723   3.605   0.594   1.994
 1570SOL    HW2 4724   3.587   0.526   2.142
 1571SOL     OW 4725   2.630   1.144   2.885
 1571SOL    HW1 4726   2.552   1.161   2.945
 1571SOL    HW2 4727   2.664   1.231   2.849
 1572SOL     OW 4728   2.712   0.798   3.685
 1572SOL    HW1 4729   2.708   0.874   3.750
 1572SOL    HW2 4730   2.734   0.834   3.594
 1573SOL     OW 4731   2.547   1.012   2.527
 1573SOL    HW1 4732   2.616   0.996   2.597
 1573SOL    HW2 4733   2.474   1.069   2.565
 1574SOL     OW 4734   2.548   1.161   3.665
 1574SOL    HW1 4735   2.608   1.240   3.679
 1574SOL    HW2 4736   2.462   1.192   3.624
 1575SOL     OW 4737   2.197   1.435   2.923
 1575SOL    HW1 4738   2.119   1.404   2.870
 1575SOL    HW2 4739   2.255   1.493   2.866
 1576SOL     OW 4740   3.322   1.505   3.201
 1576SOL    HW1 4741   3.346   1.599   3.227
 1576SOL    HW2 4742   3.306   1.451   3.283
 1577SOL     OW 4743   2.300   0.392   3.361
 1577SOL    HW1 4744   2.382   0.336   3.370
 1577SOL    HW2 4745   2.219   0.334   3.365
 1578SOL     OW 4746   3.465   0.447   2.599
 1578SOL    HW1 4747   3.391   0.493   2.549
 1578SOL    HW2 4748   3.516   0.515   2.652
 1579SOL     OW 4749   2.093   1.713   2.345
 1579SOL    HW1 4750   2.127   1.790   2.399
 1579SOL    HW2 4751   2.137   1.713   2.255
 1580SOL     OW 4752   2.989   1.341   3.552
 1580SOL    HW1 4753   3.036   1.341   3.640
 1580SOL    HW2 4754   2.941   1.254   3.541
 1581SOL     OW 4755   2.092   1.434   2.400
 1581SOL    HW1 4756   2.066   1.530   2.400
 1581SOL    HW2 4757   2.021   1.380   2.445
 1582SOL     OW 4758   2.102   1.091   2.748
 1582SOL    HW1 4759   2.116   1.007   2.800
 1582SOL    HW2 4760   2.047   1.155   2.803
 1583SOL     OW 4761   2.482   1.786   3.301
 1583SOL    HW1 4762   2.390   1.769   3.336
 1583SOL    HW2 4763   2.510   1.878   3.327
 1584SOL     OW 4764   2.468   0.964   1.985
 1584SOL    HW1 4765   2.475   1.048   1.931
 1584SOL    HW2 4766   2.514   0.977   2.073
 1585SOL     OW 4767   3.456   0.114   3.342
 1585SOL    HW1 4768   3.438   0.181   3.270
 1585SOL    HW2 4769   3.453   0.160   3.431
 1586SOL     OW 4770   1.984   0.643   2.425
 1586SOL    HW1 4771   1.939   0.555   2.442
 1586SOL    HW2 4772   1.983   0.697   2.509
 1587SOL     OW 4773   3.704   1.767   2.221
 1587SOL    HW1 4774   3.758   1.738   2.301
 1587SOL    HW2 4775   3.734   1.857   2.192
 1588SOL     OW 4776   1.889   1.596   1.979
 1588SOL    HW1 4777   1.870   1.500   2.000
 1588SOL    HW2 4778   1.856   1.654   2.054
 1589SOL     OW 4779   3.551   0.922   2.474
 1589SOL    HW1 4780   3.646   0.893   2.482
 1589SOL    HW2 4781   3.543   0.987   2.399
 1590SOL     OW 4782   3.503   1.108   2.294
 1590SOL    HW1 4783   3.589   1.110   2.242
 1590SOL    HW2 4784   3.517   1.155   2.382
 1591SOL     OW 4785   1.975   0.737   3.459
 1591SOL    HW1 4786   2.063   0.724   3.504
 1591SOL    HW2 4787   1.962   0.834   3.437
 1592SOL     OW 4788   2.475   1.365   2.588
 1592SOL    HW1 4789   2.426   1.278   2.597
 1592SOL    HW2 4790   2.452   1.408   2.501
 1593SOL     OW 4791   3.155   1.228   3.285
 1593SOL    HW1 4792   3.192   1.155   3.227
 1593SOL    HW2 4793   3.207   1.233   3.370
 1594SOL     OW 4794   2.671   0.004   2.364
 1594SOL    HW1 4795   2.711   0.095   2.355
 1594SOL    HW2 4796   2.571   0.012   2.370
 1595SOL     OW 4797   2.059   0.976   3.126
 1595SOL    HW1 4798   2.148   0.931   3.112
 1595SOL    HW2 4799   1.986   0.911   3.107
 1596SOL     OW 4800   3.387   0.999   2.052
 1596SOL    HW1 4801   3.324   0.923   2.065
 1596SOL    HW2 4802   3.435   1.017   2.138
 1597SOL     OW 4803   3.049   1.792   3.478
 1597SOL    HW1 4804   3.073   1.852   3.402
 1597SOL    HW2 4805   3.056   1.697   3.448
 1598SOL     OW 4806   2.179   0.251   3.663
 1598SOL    HW1 4807   2.250   0.322   3.669
 1598SOL    HW2 4808   2.091   0.290   3.691
 1599SOL     OW 4809   3.328   1.417   2.815
 1599SOL    HW1 4810   3.269   1.423   2.895
 1599SOL    HW2 4811   3.313   1.329   2.769
 1600SOL     OW 4812   3.529   1.714   2.434
 1600SOL    HW1 4813   3.488   1.691   2.346
 1600SOL    HW2 4814   3.511   1.640   2.499
 1601SOL     OW 4815   2.460   0.729   2.132
 1601SOL    HW1 4816   2.484   0.798   2.064
 1601SOL    HW2 4817   2.382   0.762   2.186
 1602SOL     OW 4818   3.143   0.345   2.806
 1602SOL    HW1 4819   3.057   0.295   2.793
 1602SOL    HW2 4820   3.205   0.291   2.862
 1603SOL     OW 4821   3.438   1.662   2.169
 1603SOL    HW1 4822   3.527   1.708   2.172
 1603SOL    HW2 4823   3.417   1.638   2.074
 1604SOL     OW 4824   2.669   0.605   3.327
 1604SOL    HW1 4825   2.622   0.602   3.416
 1604SOL    HW2 4826   2.618   0.550   3.261
 1605SOL     OW 4827   3.256   0.469   3.536
 1605SOL    HW1 4828   3.236   0.512   3.624
 1605SOL    HW2 4829   3.334   0.407   3.545
 1606SOL     OW 4830   2.835   0.890   3.434
 1606SOL    HW1 4831   2.881   0.806   3.405
 1606SOL    HW2 4832   2.779   0.924   3.359
 1607SOL     OW 4833   2.853   0.410   3.104
 1607SOL    HW1 4834   2.776   0.444   3.158
 1607SOL    HW2 4835   2.819   0.359   3.025
 1608SOL     OW 4836   2.903   0.701   2.291
 1608SOL    HW1 4837   2.929   0.697   2.387
 1608SOL    HW2 4838   2.818   0.650   2.277
 1609SOL     OW 4839   1.938   0.811   2.651
 1609SOL    HW1 4840   2.037   0.799   2.660
 1609SOL    HW2 4841   1.914   0.906   2.672
 1610SOL     OW 4842   1.992   1.821   3.433
 1610SOL    HW1 4843   1.982   1.806   3.532
 1610SOL    HW2 4844   1.906   1.857   3.397
 1611SOL     OW 4845   2.727   0.348   2.057
 1611SOL    HW1 4846   2.786   0.411   2.008
 1611SOL    HW2 4847   2.746   0.254   2.028
 1612SOL     OW 4848   3.581   0.585   3.693
 1612SOL    HW1 4849   3.555   0.674   3.657
 1612SOL    HW2 4850   3.579   0.517   3.620
 1613SOL     OW 4851   3.224   1.144   2.407
 1613SOL    HW1 4852   3.307   1.115   2.359
 1613SOL    HW2 4853   3.175   1.211   2.351
 1614SOL     OW 4854   2.412   0.196   2.747
 1614SOL    HW1 4855   2.407   0.191   2.847
 1614SOL    HW2 4856   2.414   0.292   2.718
 1615SOL     OW 4857   2.870   1.456   2.339
 1615SOL    HW1 4858   2.824   1.528   2.287
 1615SOL    HW2 4859   2.866   1.476   2.437
 1616SOL     OW 4860   2.213   1.801   2.715
 1616SOL    HW1 4861   2.263   1.715   2.721
 1616SOL    HW2 4862   2.278   1.878   2.712
 1617SOL     OW 4863   3.657   1.066   2.735
 1617SOL    HW1 4864   3.595   1.051   2.659
 1617SOL    HW2 4865   3.605   1.077   2.820
 1618SOL     OW 4866   3.089   1.550   3.368
 1618SOL    HW1 4867   3.095   1.473   3.432
 1618SOL    HW2 4868   3.037   1.524   3.288
 1619SOL     OW 4869   2.183   0.943   2.104
 1619SOL    HW1 4870   2.265   0.982   2.062
 1619SOL    HW2 4871   2.156   0.861   2.055
 1620SOL     OW 4872   3.320   0.735   2.590
 1620SOL    HW1 4873   3.315   0.670   2.665
 1620SOL    HW2 4874   3.400   0.794   2.603
 1621SOL     OW 4875   2.323   1.266   3.589
 1621SOL    HW1 4876   2.273   1.267   3.503
 1621SOL    HW2 4877   2.260   1.248   3.665
 1622SOL     OW 4878   2.973   1.776   2.099
 1622SOL    HW1 4879   2.913   1.714   2.149
 1622SOL    HW2 4880   3.004   1.732   2.014
 1623SOL     OW 4881   2.064   0.285   3.360
 1623SOL    HW1 4882   1.984   0.345   3.347
 1623SOL    HW2 4883   2.054   0.236   3.446
 1624SOL     OW 4884   3.494   1.377   1.943
 1624SOL    HW1 4885   3.462   1.471   1.933
 1624SOL    HW2 4886   3.418   1.314   1.931
 1625SOL     OW 4887   2.326   1.743   2.185
 1625SOL    HW1 4888   2.359   1.782   2.271
 1625SOL    HW2 4889   2.402   1.736   2.120
 1626SOL     OW 4890   3.262   0.107   2.288
 1626SOL    HW1 4891   3.238   0.070   2.198
 1626SOL    HW2 4892   3.361   0.123   2.292
 1627SOL     OW 4893   2.111   1.785   3.103
 1627SOL    HW1 4894   2.168   1.720   3.153
 1627SOL    HW2 4895   2.095   1.752   3.010
 1628SOL     OW 4896   2.802   1.698   2.766
 1628SOL    HW1 4897   2.882   1.641   2.787
 1628SOL    HW2 4898   2.753   1.658   2.689
 1629SOL     OW 4899   2.244   0.700   2.342
 1629SOL    HW1 4900   2.289   0.610   2.339
 1629SOL    HW2 4901   2.150   0.689   2.375
 1630SOL     OW 4902   3.409   0.222   3.591
 1630SOL    HW1 4903   3.404   0.259   3.683
 1630SOL    HW2 4904   3.337   0.153   3.579
 1631SOL     OW 4905   2.476   0.122   1.979
 1631SOL    HW1 4906   2.574   0.100   1.986
 1631SOL    HW2 4907   2.445   0.105   1.886
 1632SOL     OW 4908   2.643   0.264   3.611
 1632SOL    HW1 4909   2.710   0.203   3.654
 1632SOL    HW2 4910   2.570   0.283   3.676
 1633SOL     OW 4911   2.750   1.514   3.057
 1633SOL    HW1 4912   2.727   1.489   2.963
 1633SOL    HW2 4913   2.811   1.445   3.096
 1634SOL     OW 4914   3.213   0.590   3.295
 1634SOL    HW1 4915   3.241   0.547   3.380
 1634SOL    HW2 4916   3.238   0.686   3.296
 1635SOL     OW 4917   2.665   1.402   2.786
 1635SOL    HW1 4918   2.755   1.416   2.744
 1635SOL    HW2 4919   2.594   1.404   2.715
 1636SOL     OW 4920   2.784   0.503   2.761
 1636SOL    HW1 4921   2.759   0.494   2.665
 1636SOL    HW2 4922   2.832   0.421   2.792
 1637SOL     OW 4923   2.401   0.064   2.374
 1637SOL    HW1 4924   2.320   0.065   2.432
 1637SOL    HW2 4925   2.404   0.147   2.319
 1638SOL     OW 4926   3.296   1.188   1.903
 1638SOL    HW1 4927   3.328   1.112   1.960
 1638SOL    HW2 4928   3.204   1.215   1.933
 1639SOL     OW 4929   2.159   0.035   2.033
 1639SOL    HW1 4930   2.208   0.119   2.012
 1639SOL    HW2 4931   2.221  -0.030   2.078
 1640SOL     OW 4932   2.797   0.236   2.342
 1640SOL    HW1 4933   2.749   0.277   2.264
 1640SOL    HW2 4934   2.896   0.234   2.323
 1641SOL     OW 4935   2.938   0.683   3.326
 1641SOL    HW1 4936   2.858   0.622   3.329
 1641SOL    HW2 4937   3.019   0.630   3.302
 1642SOL     OW 4938   3.089   1.570   2.655
 1642SOL    HW1 4939   3.110   1.644   2.590
 1642SOL    HW2 4940   3.157   1.570   2.728
 1643SOL     OW 4941   2.321   1.152   2.603
 1643SOL    HW1 4942   2.250   1.125   2.668
 1643SOL    HW2 4943   2.295   1.124   2.510
 1644SOL     OW 4944   3.133   1.797   2.453
 1644SOL    HW1 4945   3.177   1.861   2.389
 1644SOL    HW2 4946   3.083   1.849   2.523
 1645SOL     OW 4947   2.894   0.549   1.878
 1645SOL    HW1 4948   2.853   0.631   1.839
 1645SOL    HW2 4949   2.958   0.575   1.951
 1646SOL     OW 4950   1.940   0.556   3.248
 1646SOL    HW1 4951   2.032   0.555   3.207
 1646SOL    HW2 4952   1.934   0.630   3.315
 1647SOL     OW 4953   2.423   0.222   3.009
 1647SOL    HW1 4954   2.461   0.138   3.046
 1647SOL    HW2 4955   2.335   0.241   3.053
 1648SOL     OW 4956   2.728   0.454   2.504
 1648SOL    HW1 4957   2.696   0.526   2.442
 1648SOL    HW2 4958   2.752   0.373   2.451
 1649SOL     OW 4959   2.879   0.039   2.615
 1649SOL    HW1 4960   2.807   0.044   2.546
 1649SOL    HW2 4961   2.855  -0.030   2.684
 1650SOL     OW 4962   3.291   1.173   2.729
 1650SOL    HW1 4963   3.236   1.089   2.722
 1650SOL    HW2 4964   3.317   1.202   2.637
 1651SOL     OW 4965   3.328   0.590   2.854
 1651SOL    HW1 4966   3.298   0.495   2.861
 1651SOL    HW2 4967   3.401   0.606   2.920
 1652SOL     OW 4968   3.719   0.833   2.239
 1652SOL    HW1 4969   3.761   0.769   2.303
 1652SOL    HW2 4970   3.681   0.782   2.161
 1653SOL     OW 4971   2.350   1.385   2.036
 1653SOL    HW1 4972   2.263   1.370   2.083
 1653SOL    HW2 4973   2.333   1.411   1.941
 1654SOL     OW 4974   3.526   1.280   2.519
 1654SOL    HW1 4975   3.625   1.288   2.533
 1654SOL    HW2 4976   3.481   1.364   2.550
 1655SOL     OW 4977   3.252   0.575   1.940
 1655SOL    HW1 4978   3.198   0.554   2.021
 1655SOL    HW2 4979   3.343   0.534   1.949
 1656SOL     OW 4980   2.389   0.256   2.190
 1656SOL    HW1 4981   2.416   0.197   2.115
 1656SOL    HW2 4982   2.389   0.351   2.159
 1657SOL     OW 4983   3.616   1.223   3.450
 1657SOL    HW1 4984   3.707   1.184   3.437
 1657SOL    HW2 4985   3.624   1.319   3.474
 1658SOL     OW 4986   2.926   1.347   3.202
 1658SOL    HW1 4987   2.846   1.324   3.257
 1658SOL    HW2 4988   3.009   1.321   3.251
 1659SOL     OW 4989   3.454   1.629   3.487
 1659SOL    HW1 4990   3.481   1.663   3.397
 1659SOL    HW2 4991   3.533   1.591   3.533
 1660SOL     OW 4992   2.973   1.195   2.962
 1660SOL    HW1 4993   2.933   1.239   3.043
 1660SOL    HW2 4994   2.932   1.232   2.879
 1661SOL     OW 4995   3.500   1.099   2.941
 1661SOL    HW1 4996   3.505   1.180   3.000
 1661SOL    HW2 4997   3.414   1.101   2.890
 1662SOL     OW 4998   2.777   0.089   3.264
 1662SOL    HW1 4999   2.802   0.069   3.169
 1662SOL    HW2 5000   2.849   0.145   3.306
 1663SOL     OW 5001   2.842   1.116   3.581
 1663SOL    HW1 5002   2.743   1.122   3.591
 1663SOL    HW2 5003   2.865   1.036   3.525
 1664SOL     OW 5004   2.567   1.050   2.230
 1664SOL    HW1 5005   2.553   1.057   2.329
 1664SOL    HW2 5006   2.651   0.999   2.212
 1665SOL     OW 5007   2.272   0.813   3.113
 1665SOL    HW1 5008   2.358   0.825   3.163
 1665SOL    HW2 5009   2.230   0.726   3.140
 1666SOL     OW 5010   3.136   0.386   3.124
 1666SOL    HW1 5011   3.157   0.460   3.188
 1666SOL    HW2 5012   3.047   0.403   3.081
 1667SOL     OW 5013   1.926   1.564   3.193
 1667SOL    HW1 5014   1.880   1.646   3.159
 1667SOL    HW2 5015   2.024   1.583   3.202
 1668SOL     OW 5016   2.229   1.100   2.363
 1668SOL    HW1 5017   2.222   1.183   2.307
 1668SOL    HW2 5018   2.233   1.020   2.303
 1669SOL     OW 5019   2.428   0.537   2.727
 1669SOL    HW1 5020   2.440   0.603   2.653
 1669SOL    HW2 5021   2.474   0.571   2.810
 1670SOL     OW 5022   3.114   1.348   2.250
 1670SOL    HW1 5023   3.164   1.425   2.290
 1670SOL    HW2 5024   3.019   1.350   2.282
 1671SOL     OW 5025   3.134   1.445   3.004
 1671SOL    HW1 5026   3.181   1.458   3.091
 1671SOL    HW2 5027   3.068   1.371   3.013
 1672SOL     OW 5028   3.444   0.639   2.334
 1672SOL    HW1 5029   3.413   0.700   2.407
 1672SOL    HW2 5030   3.494   0.691   2.265
 1673SOL     OW 5031   2.216   1.510   3.191
 1673SOL    HW1 5032   2.195   1.466   3.104
 1673SOL    HW2 5033   2.313   1.536   3.194
 1674SOL     OW 5034   2.264   0.751   3.460
 1674SOL    HW1 5035   2.332   0.806   3.413
 1674SOL    HW2 5036   2.304   0.663   3.487
 1675SOL     OW 5037   3.449   0.779   3.532
 1675SOL    HW1 5038   3.357   0.817   3.527
 1675SOL    HW2 5039   3.509   0.826   3.467
 1676SOL     OW 5040   2.875   0.105   3.632
 1676SOL    HW1 5041   2.881   0.190   3.580
 1676SOL    HW2 5042   2.907   0.029   3.575
 1677SOL     OW 5043   2.366   0.050   3.602
 1677SOL    HW1 5044   2.324  -0.007   3.532
 1677SOL    HW2 5045   2.300   0.119   3.634
 1678SOL     OW 5046   2.435   0.870   2.891
 1678SOL    HW1 5047   2.479   0.959   2.882
 1678SOL    HW2 5048   2.372   0.870   2.968
 1679SOL     OW 5049   3.222   0.862   2.907
 1679SOL    HW1 5050   3.147   0.862   2.841
 1679SOL    HW2 5051   3.259   0.770   2.916
 1680SOL     OW 5052   3.071   0.525   2.137
 1680SOL    HW1 5053   3.084   0.441   2.191
 1680SOL    HW2 5054   3.042   0.599   2.197
 1681SOL     OW 5055   2.169   0.213   3.093
 1681SOL    HW1 5056   2.146   0.250   3.183
 1681SOL    HW2 5057   2.139   0.118   3.087
 1682SOL     OW 5058   1.899   1.310   3.144
 1682SOL    HW1 5059   1.952   1.261   3.212
 1682SOL    HW2 5060   1.921   1.408   3.149
 1683SOL     OW 5061   2.594   0.634   2.926
 1683SOL    HW1 5062   2.653   0.608   2.850
 1683SOL    HW2 5063   2.566   0.730   2.915
 1684SOL     OW 5064   3.590   0.935   3.716
 1684SOL    HW1 5065   3.544   0.928   3.627
 1684SOL    HW2 5066   3.528   0.979   3.782
 1685SOL     OW 5067   2.169   0.063   2.480
 1685SOL    HW1 5068   2.158   0.157   2.513
 1685SOL    HW2 5069   2.164   0.000   2.557
 1686SOL     OW 5070   3.484   0.367   2.236
 1686SOL    HW1 5071   3.486   0.291   2.300
 1686SOL    HW2 5072   3.436   0.444   2.276
 1687SOL     OW 5073   2.885   0.766   2.828
 1687SOL    HW1 5074   2.900   0.787   2.924
 1687SOL    HW2 5075   2.855   0.671   2.819
 1688SOL     OW 5076   2.842   1.573   3.562
 1688SOL    HW1 5077   2.822   1.617   3.474
 1688SOL    HW2 5078   2.881   1.482   3.546
 1689SOL     OW 5079   3.721   1.518   3.467
 1689SOL    HW1 5080   3.735   1.545   3.372
 1689SOL    HW2 5081   3.804   1.540   3.520
 1690SOL     OW 5082   2.212   0.898   3.666
 1690SOL    HW1 5083   2.288   0.942   3.714
 1690SOL    HW2 5084   2.247   0.851   3.584
 1691SOL     OW 5085   3.402   0.274   1.987
 1691SOL    HW1 5086   3.341   0.199   2.010
 1691SOL    HW2 5087   3.424   0.326   2.070
 1692SOL     OW 5088   3.165   0.838   1.904
 1692SOL    HW1 5089   3.199   0.745   1.919
 1692SOL    HW2 5090   3.183   0.865   1.809
 1693SOL     OW 5091   2.930   1.333   2.711
 1693SOL    HW1 5092   2.937   1.249   2.656
 1693SOL    HW2 5093   2.992   1.402   2.675
 1694SOL     OW 5094   2.181   0.810   2.811
 1694SOL    HW1 5095   2.274   0.846   2.816
 1694SOL    HW2 5096   2.175   0.725   2.863
 1695SOL     OW 5097   2.201   0.509   2.868
 1695SOL    HW1 5098   2.149   0.426   2.851
 1695SOL    HW2 5099   2.278   0.514   2.804
 1696SOL     OW 5100   3.000   0.380   3.540
 1696SOL    HW1 5101   2.955   0.443   3.604
 1696SOL    HW2 5102   3.093   0.411   3.523
 1697SOL     OW 5103   3.022   0.207   3.339
 1697SOL    HW1 5104   3.022   0.271   3.416
 1697SOL    HW2 5105   3.050   0.255   3.256
 1698SOL     OW 5106   1.870   1.326   2.062
 1698SOL    HW1 5107   1.777   1.347   2.031
 1698SOL    HW2 5108   1.880   1.227   2.075
 1699SOL     OW 5109   1.950   1.801   2.789
 1699SOL    HW1 5110   1.908   1.715   2.762
 1699SOL    HW2 5111   2.044   1.804   2.755
 1700SOL     OW 5112   2.366   1.568   2.772
 1700SOL    HW1 5113   2.432   1.642   2.781
 1700SOL    HW2 5114   2.410   1.489   2.730
 1701SOL     OW 5115   2.864   0.796   3.100
 1701SOL    HW1 5116   2.905   0.764   3.186
 1701SOL    HW2 5117   2.768   0.769   3.097
 1702SOL     OW 5118   1.902   0.544   2.976
 1702SOL    HW1 5119   1.987   0.511   2.935
 1702SOL    HW2 5120   1.915   0.559   3.074
 1703SOL     OW 5121   2.051   0.520   3.584
 1703SOL    HW1 5122   2.110   0.480   3.514
 1703SOL    HW2 5123   1.993   0.591   3.543
 1704SOL     OW 5124   3.231   0.950   3.522
 1704SOL    HW1 5125   3.270   1.039   3.542
 1704SOL    HW2 5126   3.241   0.930   3.425
 1705SOL     OW 5127   2.677   0.572   2.187
 1705SOL    HW1 5128   2.684   0.483   2.141
 1705SOL    HW2 5129   2.583   0.606   2.179
 1706SOL     OW 5130   3.519   0.604   3.068
 1706SOL    HW1 5131   3.481   0.535   3.130
 1706SOL    HW2 5132   3.601   0.568   3.024
 1707SOL     OW 5133   2.114   1.564   3.606
 1707SOL    HW1 5134   2.084   1.621   3.682
 1707SOL    HW2 5135   2.107   1.467   3.632
 1708SOL     OW 5136   2.533   0.464   3.131
 1708SOL    HW1 5137   2.499   0.375   3.101
 1708SOL    HW2 5138   2.559   0.518   3.051
 1709SOL     OW 5139   2.792   1.678   3.327
 1709SOL    HW1 5140   2.768   1.660   3.232
 1709SOL    HW2 5141   2.822   1.772   3.337
 1710SOL     OW 5142   2.335   0.500   2.053
 1710SOL    HW1 5143   2.396   0.580   2.057
 1710SOL    HW2 5144   2.240   0.531   2.060
 1711SOL     OW 5145   2.021   1.137   3.328
 1711SOL    HW1 5146   2.043   1.076   3.404
 1711SOL    HW2 5147   2.031   1.088   3.242
 1712SOL     OW 5148   3.209   1.059   3.096
 1712SOL    HW1 5149   3.233   0.996   3.022
 1712SOL    HW2 5150   3.119   1.099   3.078
 1713SOL     OW 5151   3.164   0.855   2.171
 1713SOL    HW1 5152   3.078   0.824   2.213
 1713SOL    HW2 5153   3.160   0.841   2.072
 1714SOL     OW 5154   3.621   1.747   3.016
 1714SOL    HW1 5155   3.682   1.777   2.943
 1714SOL    HW2 5156   3.583   1.658   2.994
 1715SOL     OW 5157   3.114   1.731   2.990
 1715SOL    HW1 5158   3.198   1.736   2.936
 1715SOL    HW2 5159   3.091   1.635   3.008
 1716SOL     OW 5160   1.945   1.258   2.884
 1716SOL    HW1 5161   1.940   1.257   2.984
 1716SOL    HW2 5162   1.862   1.217   2.846
 1717SOL     OW 5163   2.550   1.662   3.578
 1717SOL    HW1 5164   2.494   1.743   3.587
 1717SOL    HW2 5165   2.602   1.666   3.492
 1718SOL     OW 5166   3.588   0.135   2.385
 1718SOL    HW1 5167   3.661   0.118   2.318
 1718SOL    HW2 5168   3.557   0.048   2.423
 1719SOL     OW 5169   3.250   1.573   2.339
 1719SOL    HW1 5170   3.317   1.585   2.265
 1719SOL    HW2 5171   3.210   1.662   2.362
 1720SOL     OW 5172   1.992   1.794   3.713
 1720SOL    HW1 5173   1.951   1.720   3.766
 1720SOL    HW2 5174   2.056   1.845   3.771
 1721SOL     OW 5175   3.142   0.927   2.534
 1721SOL    HW1 5176   3.202   0.846   2.536
 1721SOL    HW2 5177   3.182   0.996   2.474
 1722SOL     OW 5178   2.692   1.273   3.284
 1722SOL    HW1 5179   2.687   1.306   3.379
 1722SOL    HW2 5180   2.606   1.292   3.238
 1723SOL     OW 5181   2.534   1.616   2.016
 1723SOL    HW1 5182   2.543   1.626   1.917
 1723SOL    HW2 5183   2.494   1.527   2.037
 1724SOL     OW 5184   3.512   1.720   3.256
 1724SOL    HW1 5185   3.565   1.730   3.172
 1724SOL    HW2 5186   3.485   1.810   3.290
 1725SOL     OW 5187   3.703   0.175   2.825
 1725SOL    HW1 5188   3.742   0.090   2.789
 1725SOL    HW2 5189   3.605   0.177   2.806
 1726SOL     OW 5190   2.125   0.326   2.582
 1726SOL    HW1 5191   2.046   0.377   2.548
 1726SOL    HW2 5192   2.116   0.311   2.680
 1727SOL     OW 5193   3.056   1.612   1.893
 1727SOL    HW1 5194   3.062   1.519   1.930
 1727SOL    HW2 5195   2.997   1.612   1.813
 1728SOL     OW 5196   2.684   1.002   3.234
 1728SOL    HW1 5197   2.724   1.001   3.142
 1728SOL    HW2 5198   2.694   1.094   3.274
 1729SOL     OW 5199   2.778   0.910   2.153
 1729SOL    HW1 5200   2.841   0.948   2.085
 1729SOL    HW2 5201   2.818   0.827   2.192
 1730SOL     OW 5202   3.366   1.607   1.906
 1730SOL    HW1 5203   3.274   1.644   1.913
 1730SOL    HW2 5204   3.404   1.627   1.816
 1731SOL     OW 5205   2.234   1.288   3.352
 1731SOL    HW1 5206   2.221   1.381   3.318
 1731SOL    HW2 5207   2.150   1.236   3.339
 1732SOL     OW 5208   3.476   1.292   3.151
 1732SOL    HW1 5209   3.536   1.295   3.231
 1732SOL    HW2 5210   3.401   1.356   3.164
 1733SOL     OW 5211   2.901   1.098   2.558
 1733SOL    HW1 5212   2.831   1.051   2.612
 1733SOL    HW2 5213   2.960   1.030   2.515
 1734SOL     OW 5214   2.876   0.236   2.833
 1734SOL    HW1 5215   2.868   0.200   2.740
 1734SOL    HW2 5216   2.874   0.160   2.898
 1735SOL     OW 5217   2.452   1.487   2.353
 1735SOL    HW1 5218   2.494   1.429   2.283
 1735SOL    HW2 5219   2.408   1.566   2.309
 1736SOL     OW 5220   3.571   0.385   3.243
 1736SOL    HW1 5221   3.644   0.454   3.247
 1736SOL    HW2 5222   3.599   0.310   3.184
 1737SOL     OW 5223   2.117   1.348   2.152
 1737SOL    HW1 5224   2.021   1.349   2.125
 1737SOL    HW2 5225   2.129   1.401   2.236
 1738SOL     OW 5226   1.967   1.013   3.588
 1738SOL    HW1 5227   1.890   0.980   3.642
 1738SOL    HW2 5228   2.052   0.983   3.630
 1739SOL     OW 5229   2.534   0.203   3.351
 1739SOL    HW1 5230   2.624   0.187   3.311
 1739SOL    HW2 5231   2.542   0.208   3.450
 1740SOL     OW 5232   1.937   0.345   1.895
 1740SOL    HW1 5233   1.845   0.317   1.866
 1740SOL    HW2 5234   1.968   0.422   1.839
 1741SOL     OW 5235   3.302   0.856   3.260
 1741SOL    HW1 5236   3.245   0.908   3.197
 1741SOL    HW2 5237   3.398   0.868   3.236
 1742SOL     OW 5238   1.934   0.166   2.180
 1742SOL    HW1 5239   1.917   0.249   2.126
 1742SOL    HW2 5240   2.024   0.129   2.158
 1743SOL     OW 5241   3.045   1.335   1.981
 1743SOL    HW1 5242   2.946   1.324   1.983
 1743SOL    HW2 5243   3.079   1.350   2.074
 1744SOL     OW 5244   2.475   0.842   3.293
 1744SOL    HW1 5245   2.531   0.923   3.276
 1744SOL    HW2 5246   2.534   0.762   3.296
 1745SOL     OW 5247   3.355   1.767   2.821
 1745SOL    HW1 5248   3.388   1.831   2.752
 1745SOL    HW2 5249   3.421   1.761   2.896
 1746SOL     OW 5250   2.578   0.565   3.570
 1746SOL    HW1 5251   2.597   0.630   3.644
 1746SOL    HW2 5252   2.638   0.485   3.579
 1747SOL     OW 5253   3.312   1.220   3.495
 1747SOL    HW1 5254   3.303   1.210   3.594
 1747SOL    HW2 5255   3.408   1.213   3.469
 1748SOL     OW 5256   2.252   1.741   3.422
 1748SOL    HW1 5257   2.161   1.782   3.420
 1748SOL    HW2 5258   2.245   1.647   3.454
 1749SOL     OW 5259   3.536   0.883   3.116
 1749SOL    HW1 5260   3.509   0.794   3.079
 1749SOL    HW2 5261   3.537   0.951   3.043
 1750SOL     OW 5262   3.087   0.325   2.311
 1750SOL    HW1 5263   3.152   0.251   2.300
 1750SOL    HW2 5264   3.107   0.375   2.395
 1751SOL     OW 5265   2.456   0.745   2.514
 1751SOL    HW1 5266   2.506   0.830   2.495
 1751SOL    HW2 5267   2.368   0.747   2.466
 1752SOL     OW 5268   3.639   0.342   3.504
 1752SOL    HW1 5269   3.622   0.373   3.410
 1752SOL    HW2 5270   3.555   0.305   3.542
 1753SOL     OW 5271   3.592   0.934   3.379
 1753SOL    HW1 5272   3.630   1.025   3.394
 1753SOL    HW2 5273   3.584   0.917   3.280
 1754SOL     OW 5274   2.721   1.374   1.878
 1754SOL    HW1 5275   2.675   1.389   1.966
 1754SOL    HW2 5276   2.765   1.459   1.848
 1755SOL     OW 5277   2.523   1.790   2.815
 1755SOL    HW1 5278   2.477   1.878   2.802
 1755SOL    HW2 5279   2.622   1.802   2.808
 1756SOL     OW 5280   2.721   0.956   2.723
 1756SOL    HW1 5281   2.775   0.887   2.771
 1756SOL    HW2 5282   2.689   1.025   2.789
 1757SOL     OW 5283   2.945   0.984   1.949
 1757SOL    HW1 5284   2.922   1.037   1.867
 1757SOL    HW2 5285   3.026   0.928   1.930
 1758SOL     OW 5286   3.723   1.569   2.713
 1758SOL    HW1 5287   3.652   1.557   2.643
 1758SOL    HW2 5288   3.724   1.490   2.773
 1759SOL     OW 5289   2.083   1.314   3.706
 1759SOL    HW1 5290   2.018   1.241   3.685
 1759SOL    HW2 5291   2.087   1.328   3.804
 1760SOL     OW 5292   1.941   1.240   2.515
 1760SOL    HW1 5293   1.940   1.193   2.603
 1760SOL    HW2 5294   2.023   1.212   2.464
 1761SOL     OW 5295   2.534   1.391   3.486
 1761SOL    HW1 5296   2.456   1.341   3.524
 1761SOL    HW2 5297   2.531   1.486   3.517
 1762SOL     OW 5298   3.686   0.192   3.089
 1762SOL    HW1 5299   3.682   0.102   3.133
 1762SOL    HW2 5300   3.689   0.181   2.990
 1763SOL     OW 5301   2.290   0.424   2.382
 1763SOL    HW1 5302   2.320   0.352   2.320
 1763SOL    HW2 5303   2.251   0.384   2.465
 1764SOL     OW 5304   3.567   1.487   2.966
 1764SOL    HW1 5305   3.474   1.462   2.939
 1764SOL    HW2 5306   3.593   1.437   3.048
 1765SOL     OW 5307   2.179   0.547   3.142
 1765SOL    HW1 5308   2.217   0.488   3.214
 1765SOL    HW2 5309   2.219   0.521   3.054
 1766SOL     OW 5310   2.674   1.586   2.549
 1766SOL    HW1 5311   2.706   1.596   2.455
 1766SOL    HW2 5312   2.595   1.524   2.551
 1767SOL     OW 5313   3.286   0.214   2.974
 1767SOL    HW1 5314   3.338   0.149   3.029
 1767SOL    HW2 5315   3.237   0.277   3.035
 1768SOL     OW 5316   2.863   0.034   3.016
 1768SOL    HW1 5317   2.800  -0.038   2.985
 1768SOL    HW2 5318   2.956  -0.002   3.016
 1769SOL     OW 5319   2.632   1.330   2.163
 1769SOL    HW1 5320   2.586   1.243   2.180
 1769SOL    HW2 5321   2.723   1.327   2.204
 1770SOL     OW 5322   2.480   1.567   3.146
 1770SOL    HW1 5323   2.475   1.649   3.203
 1770SOL    HW2 5324   2.569   1.564   3.101
 1771SOL     OW 5325   3.214   0.052   2.030
 1771SOL    HW1 5326   3.249   0.011   1.946
 1771SOL    HW2 5327   3.124   0.014   2.050
 1772SOL     OW 5328   3.162   0.453   2.553
 1772SOL    HW1 5329   3.103   0.533   2.557
 1772SOL    HW2 5330   3.177   0.418   2.646
 1773SOL     OW 5331   3.455   0.221   2.744
 1773SOL    HW1 5332   3.371   0.220   2.798
 1773SOL    HW2 5333   3.457   0.304   2.688
 1774SOL     OW 5334   1.901   1.077   2.162
 1774SOL    HW1 5335   2.000   1.066   2.153
 1774SOL    HW2 5336   1.861   0.991   2.194
 1775SOL     OW 5337   2.737   1.646   2.199
 1775SOL    HW1 5338   2.660   1.611   2.145
 1775SOL    HW2 5339   2.705   1.717   2.261
 1776SOL     OW 5340   2.092   0.628   3.837
 1776SOL    HW1 5341   1.999   0.626   3.874
 1776SOL    HW2 5342   2.093   0.589   3.745
 1777SOL     OW 5343   2.087   0.275   4.720
 1777SOL    HW1 5344   2.122   0.258   4.812
 1777SOL    HW2 5345   1.999   0.230   4.708
 1778SOL     OW 5346   1.881   0.368   4.371
 1778SOL    HW1 5347   1.799   0.411   4.410
 1778SOL    HW2 5348   1.853   0.295   4.308
 1779SOL     OW 5349   3.417   1.511   4.427
 1779SOL    HW1 5350   3.360   1.495   4.508
 1779SOL    HW2 5351   3.358   1.521   4.347
 1780SOL     OW 5352   2.997   0.703   4.441
 1780SOL    HW1 5353   3.054   0.781   4.416
 1780SOL    HW2 5354   2.937   0.729   4.517
 1781SOL     OW 5355   3.617   0.607   3.955
 1781SOL    HW1 5356   3.605   0.594   3.856
 1781SOL    HW2 5357   3.587   0.526   4.004
 1782SOL     OW 5358   2.630   1.144   4.747
 1782SOL    HW1 5359   2.552   1.161   4.807
 1782SOL    HW2 5360   2.664   1.231   4.711
 1783SOL     OW 5361   2.547   1.012   4.389
 1783SOL    HW1 5362   2.616   0.996   4.459
 1783SOL    HW2 5363   2.474   1.069   4.427
 1784SOL     OW 5364   3.465   0.447   4.461
 1784SOL    HW1 5365   3.391   0.493   4.411
 1784SOL    HW2 5366   3.516   0.515   4.514
 1785SOL     OW 5367   2.093   1.713   4.207
 1785SOL    HW1 5368   2.127   1.790   4.261
 1785SOL    HW2 5369   2.137   1.713   4.117
 1786SOL     OW 5370   2.092   1.434   4.262
 1786SOL    HW1 5371   2.066   1.530   4.262
 1786SOL    HW2 5372   2.021   1.380   4.307
 1787SOL     OW 5373   2.102   1.091   4.610
 1787SOL    HW1 5374   2.116   1.007   4.662
 1787SOL    HW2 5375   2.047   1.155   4.665
 1788SOL     OW 5376   2.468   0.964   3.847
 1788SOL    HW1 5377   2.475   1.048   3.793
 1788SOL    HW2 5378   2.514   0.977   3.935
 1789SOL     OW 5379   1.984   0.643   4.287
 1789SOL    HW1 5380   1.939   0.555   4.304
 1789SOL    HW2 5381   1.983   0.697   4.371
 1790SOL     OW 5382   3.704   1.767   4.083
 1790SOL    HW1 5383   3.758   1.738   4.163
 1790SOL    HW2 5384   3.734   1.857   4.054
 1791SOL     OW 5385   1.889   1.596   3.841
 1791SOL    HW1 5386   1.870   1.500   3.862
 1791SOL    HW2 5387   1.856   1.654   3.916
 1792SOL     OW 5388   3.551   0.922   4.336
 1792SOL    HW1 5389   3.646   0.893   4.344
 1792SOL    HW2 5390   3.543   0.987   4.261
 1793SOL     OW 5391   3.503   1.108   4.156
 1793SOL    HW1 5392   3.589   1.110   4.104
 1793SOL    HW2 5393   3.517   1.155   4.244
 1794SOL     OW 5394   2.475   1.365   4.450
 1794SOL    HW1 5395   2.426   1.278   4.459
 1794SOL    HW2 5396   2.452   1.408   4.363
 1795SOL     OW 5397   2.671   0.004   4.226
 1795SOL    HW1 5398   2.711   0.095   4.217
 1795SOL    HW2 5399   2.571   0.012   4.232
 1796SOL     OW 5400   3.387   0.999   3.914
 1796SOL    HW1 5401   3.324   0.923   3.927
 1796SOL    HW2 5402   3.435   1.017   4.000
 1797SOL     OW 5403   3.328   1.417   4.677
 1797SOL    HW1 5404   3.269   1.423   4.757
 1797SOL    HW2 5405   3.313   1.329   4.631
 1798SOL     OW 5406   3.529   1.714   4.296
 1798SOL    HW1 5407   3.488   1.691   4.208
 1798SOL    HW2 5408   3.511   1.640   4.361
 1799SOL     OW 5409   2.460   0.729   3.994
 1799SOL    HW1 5410   2.484   0.798   3.926
 1799SOL    HW2 5411   2.382   0.762   4.048
 1800SOL     OW 5412   3.143   0.345   4.668
 1800SOL    HW1 5413   3.057   0.295   4.655
 1800SOL    HW2 5414   3.205   0.291   4.724
 1801SOL     OW 5415   3.438   1.662   4.031
 1801SOL    HW1 5416   3.527   1.708   4.034
 1801SOL    HW2 5417   3.417   1.638   3.936
 1802SOL     OW 5418   2.903   0.701   4.153
 1802SOL    HW1 5419   2.929   0.697   4.249
 1802SOL    HW2 5420   2.818   0.650   4.139
 1803SOL     OW 5421   1.938   0.811   4.513
 1803SOL    HW1 5422   2.037   0.799   4.522
 1803SOL    HW2 5423   1.914   0.906   4.534
 1804SOL     OW 5424   2.727   0.348   3.919
 1804SOL    HW1 5425   2.786   0.411   3.870
 1804SOL    HW2 5426   2.746   0.254   3.890
 1805SOL     OW 5427   3.224   1.144   4.269
 1805SOL    HW1 5428   3.307   1.115   4.221
 1805SOL    HW2 5429   3.175   1.211   4.213
 1806SOL     OW 5430   2.870   1.456   4.201
 1806SOL    HW1 5431   2.824   1.528   4.149
 1806SOL    HW2 5432   2.866   1.476   4.299
 1807SOL     OW 5433   2.213   1.801   4.577
 1807SOL    HW1 5434   2.263   1.715   4.583
 1807SOL    HW2 5435   2.278   1.878   4.574
 1808SOL     OW 5436   3.657   1.066   4.597
 1808SOL    HW1 5437   3.595   1.051   4.521
 1808SOL    HW2 5438   3.605   1.077   4.682
 1809SOL     OW 5439   2.183   0.943   3.966
 1809SOL    HW1 5440   2.265   0.982   3.924
 1809SOL    HW2 5441   2.156   0.861   3.917
 1810SOL     OW 5442   3.320   0.735   4.452
 1810SOL    HW1 5443   3.315   0.670   4.527
 1810SOL    HW2 5444   3.400   0.794   4.465
 1811SOL     OW 5445   2.973   1.776   3.961
 1811SOL    HW1 5446   2.913   1.714   4.011
 1811SOL    HW2 5447   3.004   1.732   3.876
 1812SOL     OW 5448   3.494   1.377   3.805
 1812SOL    HW1 5449   3.462   1.471   3.795
 1812SOL    HW2 5450   3.418   1.314   3.793
 1813SOL     OW 5451   2.326   1.743   4.047
 1813SOL    HW1 5452   2.359   1.782   4.133
 1813SOL    HW2 5453   2.402   1.736   3.982
 1814SOL     OW 5454   3.262   0.107   4.150
 1814SOL    HW1 5455   3.238   0.070   4.060
 1814SOL    HW2 5456   3.361   0.123   4.154
 1815SOL     OW 5457   2.244   0.700   4.204
 1815SOL    HW1 5458   2.289   0.610   4.201
 1815SOL    HW2 5459   2.150   0.689   4.237
 1816SOL     OW 5460   2.476   0.122   3.841
 1816SOL    HW1 5461   2.574   0.100   3.848
 1816SOL    HW2 5462   2.445   0.105   3.748
 1817SOL     OW 5463   2.401   0.064   4.236
 1817SOL    HW1 5464   2.320   0.065   4.294
 1817SOL    HW2 5465   2.404   0.147   4.181
 1818SOL     OW 5466   3.296   1.188   3.765
 1818SOL    HW1 5467   3.328   1.112   3.822
 1818SOL    HW2 5468   3.204   1.215   3.795
 1819SOL     OW 5469   2.159   0.035   3.895
 1819SOL    HW1 5470   2.208   0.119   3.874
 1819SOL    HW2 5471   2.221  -0.030   3.940
 1820SOL     OW 5472   2.797   0.236   4.204
 1820SOL    HW1 5473   2.749   0.277   4.126
 1820SOL    HW2 5474   2.896   0.234   4.185
 1821SOL     OW 5475   3.089   1.570   4.517
 1821SOL    HW1 5476   3.110   1.644   4.452
 1821SOL    HW2 5477   3.157   1.570   4.590
 1822SOL     OW 5478   2.321   1.152   4.465
 1822SOL    HW1 5479   2.250   1.125   4.530
 1822SOL    HW2 5480   2.295   1.124   4.372
 1823SOL     OW 5481   3.133   1.797   4.315
 1823SOL    HW1 5482   3.177   1.861   4.251
 1823SOL    HW2 5483   3.083   1.849   4.385
 1824SOL     OW 5484   2.894   0.549   3.740
 1824SOL    HW1 5485   2.853   0.631   3.701
 1824SOL    HW2 5486   2.958   0.575   3.813
 1825SOL     OW 5487   2.728   0.454   4.366
 1825SOL    HW1 5488   2.696   0.526   4.304
 1825SOL    HW2 5489   2.752   0.373   4.313
 1826SOL     OW 5490   2.879   0.039   4.477
 1826SOL    HW1 5491   2.807   0.044   4.408
 1826SOL    HW2 5492   2.855  -0.030   4.546
 1827SOL     OW 5493   3.291   1.173   4.591
 1827SOL    HW1 5494   3.236   1.089   4.584
 1827SOL    HW2 5495   3.317   1.202   4.499
 1828SOL     OW 5496   3.719   0.833   4.101
 1828SOL    HW1 5497   3.761   0.769   4.165
 1828SOL    HW2 5498   3.681   0.782   4.023
 1829SOL     OW 5499   2.350   1.385   3.898
 1829SOL    HW1 5500   2.263   1.370   3.945
 1829SOL    HW2 5501   2.333   1.411   3.803
 1830SOL     OW 5502   3.526   1.280   4.381
 1830SOL    HW1 5503   3.625   1.288   4.395
 1830SOL    HW2 5504   3.481   1.364   4.412
 1831SOL     OW 5505   3.252   0.575   3.802
 1831SOL    HW1 5506   3.198   0.554   3.883
 1831SOL    HW2 5507   3.343   0.534   3.811
 1832SOL     OW 5508   2.389   0.256   4.052
 1832SOL    HW1 5509   2.416   0.197   3.977
 1832SOL    HW2 5510   2.389   0.351   4.021
 1833SOL     OW 5511   2.567   1.050   4.092
 1833SOL    HW1 5512   2.553   1.057   4.191
 1833SOL    HW2 5513   2.651   0.999   4.074
 1834SOL     OW 5514   2.229   1.100   4.225
 1834SOL    HW1 5515   2.222   1.183   4.169
 1834SOL    HW2 5516   2.233   1.020   4.165
 1835SOL     OW 5517   2.428   0.537   4.589
 1835SOL    HW1 5518   2.440   0.603   4.515
 1835SOL    HW2 5519   2.474   0.571   4.672
 1836SOL     OW 5520   3.114   1.348   4.112
 1836SOL    HW1 5521   3.164   1.425   4.152
 1836SOL    HW2 5522   3.019   1.350   4.144
 1837SOL     OW 5523   3.444   0.639   4.196
 1837SOL    HW1 5524   3.413   0.700   4.269
 1837SOL    HW2 5525   3.494   0.691   4.127
 1838SOL     OW 5526   3.071   0.525   3.999
 1838SOL    HW1 5527   3.084   0.441   4.053
 1838SOL    HW2 5528   3.042   0.599   4.059
 1839SOL     OW 5529   2.594   0.634   4.788
 1839SOL    HW1 5530   2.653   0.608   4.712
 1839SOL    HW2 5531   2.566   0.730   4.777
 1840SOL     OW 5532   2.169   0.063   4.342
 1840SOL    HW1 5533   2.158   0.157   4.375
 1840SOL    HW2 5534   2.164   0.000   4.419
 1841SOL     OW 5535   3.484   0.367   4.098
 1841SOL    HW1 5536   3.486   0.291   4.162
 1841SOL    HW2 5537   3.436   0.444   4.138
 1842SOL     OW 5538   3.402   0.274   3.849
 1842SOL    HW1 5539   3.341   0.199   3.872
 1842SOL    HW2 5540   3.424   0.326   3.932
 1843SOL     OW 5541   3.165   0.838   3.766
 1843SOL    HW1 5542   3.199   0.745   3.781
 1843SOL    HW2 5543   3.183   0.865   3.671
 1844SOL     OW 5544   2.930   1.333   4.573
 1844SOL    HW1 5545   2.937   1.249   4.518
 1844SOL    HW2 5546   2.992   1.402   4.537
 1845SOL     OW 5547   2.181   0.810   4.673
 1845SOL    HW1 5548   2.274   0.846   4.678
 1845SOL    HW2 5549   2.175   0.725   4.725
 1846SOL     OW 5550   1.870   1.326   3.924
 1846SOL    HW1 5551   1.777   1.347   3.893
 1846SOL    HW2 5552   1.880   1.227   3.937
 1847SOL     OW 5553   1.950   1.801   4.651
 1847SOL    HW1 5554   1.908   1.715   4.624
 1847SOL    HW2 5555   2.044   1.804   4.617
 1848SOL     OW 5556   2.366   1.568   4.634
 1848SOL    HW1 5557   2.432   1.642   4.643
 1848SOL    HW2 5558   2.410   1.489   4.592
 1849SOL     OW 5559   2.677   0.572   4.049
 1849SOL    HW1 5560   2.684   0.483   4.003
 1849SOL    HW2 5561   2.583   0.606   4.041
 1850SOL     OW 5562   2.335   0.500   3.915
 1850SOL    HW1 5563   2.396   0.580   3.919
 1850SOL    HW2 5564   2.240   0.531   3.922
 1851SOL     OW 5565   3.164   0.855   4.033
 1851SOL    HW1 5566   3.078   0.824   4.075
 1851SOL    HW2 5567   3.160   0.841   3.934
 1852SOL     OW 5568   3.621   1.747   4.878
 1852SOL    HW1 5569   3.682   1.777   4.805
 1852SOL    HW2 5570   3.583   1.658   4.856
 1853SOL     OW 5571   3.588   0.135   4.247
 1853SOL    HW1 5572   3.661   0.118   4.180
 1853SOL    HW2 5573   3.557   0.048   4.285
 1854SOL     OW 5574   3.250   1.573   4.201
 1854SOL    HW1 5575   3.317   1.585   4.127
 1854SOL    HW2 5576   3.210   1.662   4.224
 1855SOL     OW 5577   3.142   0.927   4.396
 1855SOL    HW1 5578   3.202   0.846   4.398
 1855SOL    HW2 5579   3.182   0.996   4.336
 1856SOL     OW 5580   2.534   1.616   3.878
 1856SOL    HW1 5581   2.543   1.626   3.779
 1856SOL    HW2 5582   2.494   1.527   3.899
 1857SOL     OW 5583   3.703   0.175   4.687
 1857SOL    HW1 5584   3.742   0.090   4.651
 1857SOL    HW2 5585   3.605   0.177   4.668
 1858SOL     OW 5586   2.125   0.326   4.444
 1858SOL    HW1 5587   2.046   0.377   4.410
 1858SOL    HW2 5588   2.116   0.311   4.542
 1859SOL     OW 5589   3.056   1.612   3.755
 1859SOL    HW1 5590   3.062   1.519   3.792
 1859SOL    HW2 5591   2.997   1.612   3.675
 1860SOL     OW 5592   2.778   0.910   4.015
 1860SOL    HW1 5593   2.841   0.948   3.947
 1860SOL    HW2 5594   2.818   0.827   4.054
 1861SOL     OW 5595   3.366   1.607   3.768
 1861SOL    HW1 5596   3.274   1.644   3.775
 1861SOL    HW2 5597   3.404   1.627   3.678
 1862SOL     OW 5598   2.901   1.098   4.420
 1862SOL    HW1 5599   2.831   1.051   4.474
 1862SOL    HW2 5600   2.960   1.030   4.377
 1863SOL     OW 5601   2.452   1.487   4.215
 1863SOL    HW1 5602   2.494   1.429   4.145
 1863SOL    HW2 5603   2.408   1.566   4.171
 1864SOL     OW 5604   2.117   1.348   4.014
 1864SOL    HW1 5605   2.021   1.349   3.987
 1864SOL    HW2 5606   2.129   1.401   4.098
 1865SOL     OW 5607   1.937   0.345   3.757
 1865SOL    HW1 5608   1.845   0.317   3.728
 1865SOL    HW2 5609   1.968   0.422   3.701
 1866SOL     OW 5610   1.934   0.166   4.042
 1866SOL    HW1 5611   1.917   0.249   3.988
 1866SOL    HW2 5612   2.024   0.129   4.020
 1867SOL     OW 5613   3.045   1.335   3.843
 1867SOL    HW1 5614   2.946   1.324   3.845
 1867SOL    HW2 5615   3.079   1.350   3.936
 1868SOL     OW 5616   3.536   0.883   4.978
 1868SOL    HW1 5617   3.509   0.794   4.941
 1868SOL    HW2 5618   3.537   0.951   4.905
 1869SOL     OW 5619   3.087   0.325   4.173
 1869SOL    HW1 5620   3.152   0.251   4.162
 1869SOL    HW2 5621   3.107   0.375   4.257
 1870SOL     OW 5622   2.456   0.745   4.376
 1870SOL    HW1 5623   2.506   0.830   4.357
 1870SOL    HW2 5624   2.368   0.747   4.328
 1871SOL     OW 5625   2.721   1.374   3.740
 1871SOL    HW1 5626   2.675   1.389   3.828
 1871SOL    HW2 5627   2.765   1.459   3.710
 1872SOL     OW 5628   2.523   1.790   4.677
 1872SOL    HW1 5629   2.477   1.878   4.664
 1872SOL    HW2 5630   2.622   1.802   4.670
 1873SOL     OW 5631   2.721   0.956   4.585
 1873SOL    HW1 5632   2.775   0.887   4.633
 1873SOL    HW2 5633   2.689   1.025   4.651
 1874SOL     OW 5634   2.945   0.984   3.811
 1874SOL    HW1 5635   2.922   1.037   3.729
 1874SOL    HW2 5636   3.026   0.928   3.792
 1875SOL     OW 5637   3.723   1.569   4.575
 1875SOL    HW1 5638   3.652   1.557   4.505
 1875SOL    HW2 5639   3.724   1.490   4.635
 1876SOL     OW 5640   1.941   1.240   4.377
 1876SOL    HW1 5641   1.940   1.193   4.465
 1876SOL    HW2 5642   2.023   1.212   4.326
 1877SOL     OW 5643   3.686   0.192   4.951
 1877SOL    HW1 5644   3.682   0.102   4.995
 1877SOL    HW2 5645   3.689   0.181   4.852
 1878SOL     OW 5646   2.290   0.424   4.244
 1878SOL    HW1 5647   2.320   0.352   4.182
 1878SOL    HW2 5648   2.251   0.384   4.327
 1879SOL     OW 5649   2.674   1.586   4.411
 1879SOL    HW1 5650   2.706   1.596   4.317
 1879SOL    HW2 5651   2.595   1.524   4.413
 1880SOL     OW 5652   2.632   1.330   4.025
 1880SOL    HW1 5653   2.586   1.243   4.042
 1880SOL    HW2 5654   2.723   1.327   4.066
 1881SOL     OW 5655   3.214   0.052   3.892
 1881SOL    HW1 5656   3.249   0.011   3.808
 1881SOL    HW2 5657   3.124   0.014   3.912
 1882SOL     OW 5658   3.162   0.453   4.415
 1882SOL    HW1 5659   3.103   0.533   4.419
 1882SOL    HW2 5660   3.177   0.418   4.508
 1883SOL     OW 5661   3.455   0.221   4.606
 1883SOL    HW1 5662   3.371   0.220   4.660
 1883SOL    HW2 5663   3.457   0.304   4.550
 1884SOL     OW 5664   1.901   1.077   4.024
 1884SOL    HW1 5665   2.000   1.066   4.015
 1884SOL    HW2 5666   1.861   0.991   4.056
 1885SOL     OW 5667   2.737   1.646   4.061
 1885SOL    HW1 5668   2.660   1.611   4.007
 1885SOL    HW2 5669   2.705   1.717   4.123
 1886SOL     OW 5670   2.092   2.490   0.113
 1886SOL    HW1 5671   1.999   2.488   0.150
 1886SOL    HW2 5672   2.093   2.451   0.021
 1887SOL     OW 5673   2.087   2.137   0.996
 1887SOL    HW1 5674   2.122   2.120   1.088
 1887SOL    HW2 5675   1.999   2.092   0.984
 1888SOL     OW 5676   1.881   2.230   0.647
 1888SOL    HW1 5677   1.799   2.273   0.686
 1888SOL    HW2 5678   1.853   2.157   0.584
 1889SOL     OW 5679   2.431   3.137   1.165
 1889SOL    HW1 5680   2.338   3.130   1.128
 1889SOL    HW2 5681   2.442   3.226   1.209
 1890SOL     OW 5682   3.417   3.373   0.703
 1890SOL    HW1 5683   3.360   3.357   0.784
 1890SOL    HW2 5684   3.358   3.383   0.623
 1891SOL     OW 5685   2.997   2.565   0.717
 1891SOL    HW1 5686   3.054   2.643   0.692
 1891SOL    HW2 5687   2.937   2.591   0.793
 1892SOL     OW 5688   3.617   2.469   0.231
 1892SOL    HW1 5689   3.605   2.456   0.132
 1892SOL    HW2 5690   3.587   2.388   0.280
 1893SOL     OW 5691   2.630   3.006   1.023
 1893SOL    HW1 5692   2.552   3.023   1.083
 1893SOL    HW2 5693   2.664   3.093   0.987
 1894SOL     OW 5694   2.712   2.660   1.823
 1894SOL    HW1 5695   2.708   2.736   1.888
 1894SOL    HW2 5696   2.734   2.696   1.732
 1895SOL     OW 5697   2.547   2.874   0.665
 1895SOL    HW1 5698   2.616   2.858   0.735
 1895SOL    HW2 5699   2.474   2.931   0.703
 1896SOL     OW 5700   2.548   3.023   1.803
 1896SOL    HW1 5701   2.608   3.102   1.817
 1896SOL    HW2 5702   2.462   3.054   1.762
 1897SOL     OW 5703   2.197   3.297   1.061
 1897SOL    HW1 5704   2.119   3.266   1.008
 1897SOL    HW2 5705   2.255   3.355   1.004
 1898SOL     OW 5706   3.322   3.367   1.339
 1898SOL    HW1 5707   3.346   3.461   1.365
 1898SOL    HW2 5708   3.306   3.313   1.421
 1899SOL     OW 5709   2.300   2.254   1.499
 1899SOL    HW1 5710   2.382   2.198   1.508
 1899SOL    HW2 5711   2.219   2.196   1.503
 1900SOL     OW 5712   3.465   2.309   0.737
 1900SOL    HW1 5713   3.391   2.355   0.687
 1900SOL    HW2 5714   3.516   2.377   0.790
 1901SOL     OW 5715   2.093   3.575   0.483
 1901SOL    HW1 5716   2.127   3.652   0.537
 1901SOL    HW2 5717   2.137   3.575   0.393
 1902SOL     OW 5718   2.989   3.203   1.690
 1902SOL    HW1 5719   3.036   3.203   1.778
 1902SOL    HW2 5720   2.941   3.116   1.679
 1903SOL     OW 5721   2.092   3.296   0.538
 1903SOL    HW1 5722   2.066   3.392   0.538
 1903SOL    HW2 5723   2.021   3.242   0.583
 1904SOL     OW 5724   2.102   2.953   0.886
 1904SOL    HW1 5725   2.116   2.869   0.938
 1904SOL    HW2 5726   2.047   3.017   0.941
 1905SOL     OW 5727   2.482   3.648   1.439
 1905SOL    HW1 5728   2.390   3.631   1.474
 1905SOL    HW2 5729   2.510   3.740   1.465
 1906SOL     OW 5730   2.468   2.826   0.123
 1906SOL    HW1 5731   2.475   2.910   0.069
 1906SOL    HW2 5732   2.514   2.839   0.211
 1907SOL     OW 5733   3.456   1.976   1.480
 1907SOL    HW1 5734   3.438   2.043   1.408
 1907SOL    HW2 5735   3.453   2.022   1.569
 1908SOL     OW 5736   1.984   2.505   0.563
 1908SOL    HW1 5737   1.939   2.417   0.580
 1908SOL    HW2 5738   1.983   2.559   0.647
 1909SOL     OW 5739   3.704   3.629   0.359
 1909SOL    HW1 5740   3.758   3.600   0.439
 1909SOL    HW2 5741   3.734   3.719   0.330
 1910SOL     OW 5742   3.551   2.784   0.612
 1910SOL    HW1 5743   3.646   2.755   0.620
 1910SOL    HW2 5744   3.543   2.849   0.537
 1911SOL     OW 5745   3.503   2.970   0.432
 1911SOL    HW1 5746   3.589   2.972   0.380
 1911SOL    HW2 5747   3.517   3.017   0.520
 1912SOL     OW 5748   1.975   2.599   1.597
 1912SOL    HW1 5749   2.063   2.586   1.642
 1912SOL    HW2 5750   1.962   2.696   1.575
 1913SOL     OW 5751   2.475   3.227   0.726
 1913SOL    HW1 5752   2.426   3.140   0.735
 1913SOL    HW2 5753   2.452   3.270   0.639
 1914SOL     OW 5754   3.155   3.090   1.423
 1914SOL    HW1 5755   3.192   3.017   1.365
 1914SOL    HW2 5756   3.207   3.095   1.508
 1915SOL     OW 5757   2.671   1.866   0.502
 1915SOL    HW1 5758   2.711   1.957   0.493
 1915SOL    HW2 5759   2.571   1.874   0.508
 1916SOL     OW 5760   2.059   2.838   1.264
 1916SOL    HW1 5761   2.148   2.793   1.250
 1916SOL    HW2 5762   1.986   2.773   1.245
 1917SOL     OW 5763   3.387   2.861   0.190
 1917SOL    HW1 5764   3.324   2.785   0.203
 1917SOL    HW2 5765   3.435   2.879   0.276
 1918SOL     OW 5766   3.049   3.654   1.616
 1918SOL    HW1 5767   3.073   3.714   1.540
 1918SOL    HW2 5768   3.056   3.559   1.586
 1919SOL     OW 5769   2.179   2.113   1.801
 1919SOL    HW1 5770   2.250   2.184   1.807
 1919SOL    HW2 5771   2.091   2.152   1.829
 1920SOL     OW 5772   3.328   3.279   0.953
 1920SOL    HW1 5773   3.269   3.285   1.033
 1920SOL    HW2 5774   3.313   3.191   0.907
 1921SOL     OW 5775   3.529   3.576   0.572
 1921SOL    HW1 5776   3.488   3.553   0.484
 1921SOL    HW2 5777   3.511   3.502   0.637
 1922SOL     OW 5778   2.460   2.591   0.270
 1922SOL    HW1 5779   2.484   2.660   0.202
 1922SOL    HW2 5780   2.382   2.624   0.324
 1923SOL     OW 5781   3.143   2.207   0.944
 1923SOL    HW1 5782   3.057   2.157   0.931
 1923SOL    HW2 5783   3.205   2.153   1.000
 1924SOL     OW 5784   3.438   3.524   0.307
 1924SOL    HW1 5785   3.527   3.570   0.310
 1924SOL    HW2 5786   3.417   3.500   0.212
 1925SOL     OW 5787   2.669   2.467   1.465
 1925SOL    HW1 5788   2.622   2.464   1.554
 1925SOL    HW2 5789   2.618   2.412   1.399
 1926SOL     OW 5790   3.256   2.331   1.674
 1926SOL    HW1 5791   3.236   2.374   1.762
 1926SOL    HW2 5792   3.334   2.269   1.683
 1927SOL     OW 5793   2.835   2.752   1.572
 1927SOL    HW1 5794   2.881   2.668   1.543
 1927SOL    HW2 5795   2.779   2.786   1.497
 1928SOL     OW 5796   2.853   2.272   1.242
 1928SOL    HW1 5797   2.776   2.306   1.296
 1928SOL    HW2 5798   2.819   2.221   1.163
 1929SOL     OW 5799   2.903   2.563   0.429
 1929SOL    HW1 5800   2.929   2.559   0.525
 1929SOL    HW2 5801   2.818   2.512   0.415
 1930SOL     OW 5802   1.938   2.673   0.789
 1930SOL    HW1 5803   2.037   2.661   0.798
 1930SOL    HW2 5804   1.914   2.768   0.810
 1931SOL     OW 5805   1.992   3.683   1.571
 1931SOL    HW1 5806   1.982   3.668   1.670
 1931SOL    HW2 5807   1.906   3.719   1.535
 1932SOL     OW 5808   2.727   2.210   0.195
 1932SOL    HW1 5809   2.786   2.273   0.146
 1932SOL    HW2 5810   2.746   2.116   0.166
 1933SOL     OW 5811   3.581   2.447   1.831
 1933SOL    HW1 5812   3.555   2.536   1.795
 1933SOL    HW2 5813   3.579   2.379   1.758
 1934SOL     OW 5814   3.224   3.006   0.545
 1934SOL    HW1 5815   3.307   2.977   0.497
 1934SOL    HW2 5816   3.175   3.073   0.489
 1935SOL     OW 5817   2.412   2.058   0.885
 1935SOL    HW1 5818   2.407   2.053   0.985
 1935SOL    HW2 5819   2.414   2.154   0.856
 1936SOL     OW 5820   2.870   3.318   0.477
 1936SOL    HW1 5821   2.824   3.390   0.425
 1936SOL    HW2 5822   2.866   3.338   0.575
 1937SOL     OW 5823   2.213   3.663   0.853
 1937SOL    HW1 5824   2.263   3.577   0.859
 1937SOL    HW2 5825   2.278   3.740   0.850
 1938SOL     OW 5826   3.657   2.928   0.873
 1938SOL    HW1 5827   3.595   2.913   0.797
 1938SOL    HW2 5828   3.605   2.939   0.958
 1939SOL     OW 5829   3.089   3.412   1.506
 1939SOL    HW1 5830   3.095   3.335   1.570
 1939SOL    HW2 5831   3.037   3.386   1.426
 1940SOL     OW 5832   2.183   2.805   0.242
 1940SOL    HW1 5833   2.265   2.844   0.200
 1940SOL    HW2 5834   2.156   2.723   0.193
 1941SOL     OW 5835   3.320   2.597   0.728
 1941SOL    HW1 5836   3.315   2.532   0.803
 1941SOL    HW2 5837   3.400   2.656   0.741
 1942SOL     OW 5838   2.323   3.128   1.727
 1942SOL    HW1 5839   2.273   3.129   1.641
 1942SOL    HW2 5840   2.260   3.110   1.803
 1943SOL     OW 5841   2.973   3.638   0.237
 1943SOL    HW1 5842   2.913   3.576   0.287
 1943SOL    HW2 5843   3.004   3.594   0.152
 1944SOL     OW 5844   2.064   2.147   1.498
 1944SOL    HW1 5845   1.984   2.207   1.485
 1944SOL    HW2 5846   2.054   2.098   1.584
 1945SOL     OW 5847   3.494   3.239   0.081
 1945SOL    HW1 5848   3.462   3.333   0.071
 1945SOL    HW2 5849   3.418   3.176   0.069
 1946SOL     OW 5850   2.326   3.605   0.323
 1946SOL    HW1 5851   2.359   3.644   0.409
 1946SOL    HW2 5852   2.402   3.598   0.258
 1947SOL     OW 5853   3.262   1.969   0.426
 1947SOL    HW1 5854   3.238   1.932   0.336
 1947SOL    HW2 5855   3.361   1.985   0.430
 1948SOL     OW 5856   2.111   3.647   1.241
 1948SOL    HW1 5857   2.168   3.582   1.291
 1948SOL    HW2 5858   2.095   3.614   1.148
 1949SOL     OW 5859   2.802   3.560   0.904
 1949SOL    HW1 5860   2.882   3.503   0.925
 1949SOL    HW2 5861   2.753   3.520   0.827
 1950SOL     OW 5862   2.244   2.562   0.480
 1950SOL    HW1 5863   2.289   2.472   0.477
 1950SOL    HW2 5864   2.150   2.551   0.513
 1951SOL     OW 5865   3.409   2.084   1.729
 1951SOL    HW1 5866   3.404   2.121   1.821
 1951SOL    HW2 5867   3.337   2.015   1.717
 1952SOL     OW 5868   2.643   2.126   1.749
 1952SOL    HW1 5869   2.710   2.065   1.792
 1952SOL    HW2 5870   2.570   2.145   1.814
 1953SOL     OW 5871   2.750   3.376   1.195
 1953SOL    HW1 5872   2.727   3.351   1.101
 1953SOL    HW2 5873   2.811   3.307   1.234
 1954SOL     OW 5874   3.213   2.452   1.433
 1954SOL    HW1 5875   3.241   2.409   1.518
 1954SOL    HW2 5876   3.238   2.548   1.434
 1955SOL     OW 5877   2.665   3.264   0.924
 1955SOL    HW1 5878   2.755   3.278   0.882
 1955SOL    HW2 5879   2.594   3.266   0.853
 1956SOL     OW 5880   2.784   2.365   0.899
 1956SOL    HW1 5881   2.759   2.356   0.803
 1956SOL    HW2 5882   2.832   2.283   0.930
 1957SOL     OW 5883   2.401   1.926   0.512
 1957SOL    HW1 5884   2.320   1.927   0.570
 1957SOL    HW2 5885   2.404   2.009   0.457
 1958SOL     OW 5886   3.296   3.050   0.041
 1958SOL    HW1 5887   3.328   2.974   0.098
 1958SOL    HW2 5888   3.204   3.077   0.071
 1959SOL     OW 5889   2.159   1.897   0.171
 1959SOL    HW1 5890   2.208   1.981   0.150
 1959SOL    HW2 5891   2.221   1.832   0.216
 1960SOL     OW 5892   2.797   2.098   0.480
 1960SOL    HW1 5893   2.749   2.139   0.402
 1960SOL    HW2 5894   2.896   2.096   0.461
 1961SOL     OW 5895   2.938   2.545   1.464
 1961SOL    HW1 5896   2.858   2.484   1.467
 1961SOL    HW2 5897   3.019   2.492   1.440
 1962SOL     OW 5898   3.089   3.432   0.793
 1962SOL    HW1 5899   3.110   3.506   0.728
 1962SOL    HW2 5900   3.157   3.432   0.866
 1963SOL     OW 5901   2.321   3.014   0.741
 1963SOL    HW1 5902   2.250   2.987   0.806
 1963SOL    HW2 5903   2.295   2.986   0.648
 1964SOL     OW 5904   3.133   3.659   0.591
 1964SOL    HW1 5905   3.177   3.723   0.527
 1964SOL    HW2 5906   3.083   3.711   0.661
 1965SOL     OW 5907   2.894   2.411   0.016
 1965SOL    HW1 5908   2.853   2.493  -0.023
 1965SOL    HW2 5909   2.958   2.437   0.089
 1966SOL     OW 5910   1.940   2.418   1.386
 1966SOL    HW1 5911   2.032   2.417   1.345
 1966SOL    HW2 5912   1.934   2.492   1.453
 1967SOL     OW 5913   2.423   2.084   1.147
 1967SOL    HW1 5914   2.461   2.000   1.184
 1967SOL    HW2 5915   2.335   2.103   1.191
 1968SOL     OW 5916   2.728   2.316   0.642
 1968SOL    HW1 5917   2.696   2.388   0.580
 1968SOL    HW2 5918   2.752   2.235   0.589
 1969SOL     OW 5919   2.879   1.901   0.753
 1969SOL    HW1 5920   2.807   1.906   0.684
 1969SOL    HW2 5921   2.855   1.832   0.822
 1970SOL     OW 5922   3.291   3.035   0.867
 1970SOL    HW1 5923   3.236   2.951   0.860
 1970SOL    HW2 5924   3.317   3.064   0.775
 1971SOL     OW 5925   3.328   2.452   0.992
 1971SOL    HW1 5926   3.298   2.357   0.999
 1971SOL    HW2 5927   3.401   2.468   1.058
 1972SOL     OW 5928   3.719   2.695   0.377
 1972SOL    HW1 5929   3.761   2.631   0.441
 1972SOL    HW2 5930   3.681   2.644   0.299
 1973SOL     OW 5931   2.350   3.247   0.174
 1973SOL    HW1 5932   2.263   3.232   0.221
 1973SOL    HW2 5933   2.333   3.273   0.079
 1974SOL     OW 5934   3.526   3.142   0.657
 1974SOL    HW1 5935   3.625   3.150   0.671
 1974SOL    HW2 5936   3.481   3.226   0.688
 1975SOL     OW 5937   3.252   2.437   0.078
 1975SOL    HW1 5938   3.198   2.416   0.159
 1975SOL    HW2 5939   3.343   2.396   0.087
 1976SOL     OW 5940   2.389   2.118   0.328
 1976SOL    HW1 5941   2.416   2.059   0.253
 1976SOL    HW2 5942   2.389   2.213   0.297
 1977SOL     OW 5943   3.616   3.085   1.588
 1977SOL    HW1 5944   3.707   3.046   1.575
 1977SOL    HW2 5945   3.624   3.181   1.612
 1978SOL     OW 5946   2.926   3.209   1.340
 1978SOL    HW1 5947   2.846   3.186   1.395
 1978SOL    HW2 5948   3.009   3.183   1.389
 1979SOL     OW 5949   3.454   3.491   1.625
 1979SOL    HW1 5950   3.481   3.525   1.535
 1979SOL    HW2 5951   3.533   3.453   1.671
 1980SOL     OW 5952   2.973   3.057   1.100
 1980SOL    HW1 5953   2.933   3.101   1.181
 1980SOL    HW2 5954   2.932   3.094   1.017
 1981SOL     OW 5955   3.500   2.961   1.079
 1981SOL    HW1 5956   3.505   3.042   1.138
 1981SOL    HW2 5957   3.414   2.963   1.028
 1982SOL     OW 5958   2.777   1.951   1.402
 1982SOL    HW1 5959   2.802   1.931   1.307
 1982SOL    HW2 5960   2.849   2.007   1.444
 1983SOL     OW 5961   2.842   2.978   1.719
 1983SOL    HW1 5962   2.743   2.984   1.729
 1983SOL    HW2 5963   2.865   2.898   1.663
 1984SOL     OW 5964   2.567   2.912   0.368
 1984SOL    HW1 5965   2.553   2.919   0.467
 1984SOL    HW2 5966   2.651   2.861   0.350
 1985SOL     OW 5967   2.272   2.675   1.251
 1985SOL    HW1 5968   2.358   2.687   1.301
 1985SOL    HW2 5969   2.230   2.588   1.278
 1986SOL     OW 5970   3.136   2.248   1.262
 1986SOL    HW1 5971   3.157   2.322   1.326
 1986SOL    HW2 5972   3.047   2.265   1.219
 1987SOL     OW 5973   1.926   3.426   1.331
 1987SOL    HW1 5974   1.880   3.508   1.297
 1987SOL    HW2 5975   2.024   3.445   1.340
 1988SOL     OW 5976   2.229   2.962   0.501
 1988SOL    HW1 5977   2.222   3.045   0.445
 1988SOL    HW2 5978   2.233   2.882   0.441
 1989SOL     OW 5979   2.428   2.399   0.865
 1989SOL    HW1 5980   2.440   2.465   0.791
 1989SOL    HW2 5981   2.474   2.433   0.948
 1990SOL     OW 5982   3.114   3.210   0.388
 1990SOL    HW1 5983   3.164   3.287   0.428
 1990SOL    HW2 5984   3.019   3.212   0.420
 1991SOL     OW 5985   3.134   3.307   1.142
 1991SOL    HW1 5986   3.181   3.320   1.229
 1991SOL    HW2 5987   3.068   3.233   1.151
 1992SOL     OW 5988   3.444   2.501   0.472
 1992SOL    HW1 5989   3.413   2.562   0.545
 1992SOL    HW2 5990   3.494   2.553   0.403
 1993SOL     OW 5991   2.216   3.372   1.329
 1993SOL    HW1 5992   2.195   3.328   1.242
 1993SOL    HW2 5993   2.313   3.398   1.332
 1994SOL     OW 5994   2.264   2.613   1.598
 1994SOL    HW1 5995   2.332   2.668   1.551
 1994SOL    HW2 5996   2.304   2.525   1.625
 1995SOL     OW 5997   3.449   2.641   1.670
 1995SOL    HW1 5998   3.357   2.679   1.665
 1995SOL    HW2 5999   3.509   2.688   1.605
 1996SOL     OW 6000   2.875   1.967   1.770
 1996SOL    HW1 6001   2.881   2.052   1.718
 1996SOL    HW2 6002   2.907   1.891   1.713
 1997SOL     OW 6003   2.366   1.912   1.740
 1997SOL    HW1 6004   2.324   1.855   1.670
 1997SOL    HW2 6005   2.300   1.981   1.772
 1998SOL     OW 6006   2.435   2.732   1.029
 1998SOL    HW1 6007   2.479   2.821   1.020
 1998SOL    HW2 6008   2.372   2.732   1.106
 1999SOL     OW 6009   3.222   2.724   1.045
 1999SOL    HW1 6010   3.147   2.724   0.979
 1999SOL    HW2 6011   3.259   2.632   1.054
 2000SOL     OW 6012   3.071   2.387   0.275
 2000SOL    HW1 6013   3.084   2.303   0.329
 2000SOL    HW2 6014   3.042   2.461   0.335
 2001SOL     OW 6015   2.169   2.075   1.231
 2001SOL    HW1 6016   2.146   2.112   1.321
 2001SOL    HW2 6017   2.139   1.980   1.225
 2002SOL     OW 6018   1.899   3.172   1.282
 2002SOL    HW1 6019   1.952   3.123   1.350
 2002SOL    HW2 6020   1.921   3.270   1.287
 2003SOL     OW 6021   2.594   2.496   1.064
 2003SOL    HW1 6022   2.653   2.470   0.988
 2003SOL    HW2 6023   2.566   2.592   1.053
 2004SOL     OW 6024   3.590   2.797   1.854
 2004SOL    HW1 6025   3.544   2.790   1.765
 2004SOL    HW2 6026   3.528   2.841   1.920
 2005SOL     OW 6027   2.169   1.925   0.618
 2005SOL    HW1 6028   2.158   2.019   0.651
 2005SOL    HW2 6029   2.164   1.862   0.695
 2006SOL     OW 6030   3.484   2.229   0.374
 2006SOL    HW1 6031   3.486   2.153   0.438
 2006SOL    HW2 6032   3.436   2.306   0.414
 2007SOL     OW 6033   2.885   2.628   0.966
 2007SOL    HW1 6034   2.900   2.649   1.062
 2007SOL    HW2 6035   2.855   2.533   0.957
 2008SOL     OW 6036   2.842   3.435   1.700
 2008SOL    HW1 6037   2.822   3.479   1.612
 2008SOL    HW2 6038   2.881   3.344   1.684
 2009SOL     OW 6039   3.721   3.380   1.605
 2009SOL    HW1 6040   3.735   3.407   1.510
 2009SOL    HW2 6041   3.804   3.402   1.658
 2010SOL     OW 6042   2.212   2.760   1.804
 2010SOL    HW1 6043   2.288   2.804   1.852
 2010SOL    HW2 6044   2.247   2.713   1.722
 2011SOL     OW 6045   3.402   2.136   0.125
 2011SOL    HW1 6046   3.341   2.061   0.148
 2011SOL    HW2 6047   3.424   2.188   0.208
 2012SOL     OW 6048   3.165   2.700   0.042
 2012SOL    HW1 6049   3.199   2.607   0.057
 2012SOL    HW2 6050   3.183   2.727  -0.053
 2013SOL     OW 6051   2.930   3.195   0.849
 2013SOL    HW1 6052   2.937   3.111   0.794
 2013SOL    HW2 6053   2.992   3.264   0.813
 2014SOL     OW 6054   2.181   2.672   0.949
 2014SOL    HW1 6055   2.274   2.708   0.954
 2014SOL    HW2 6056   2.175   2.587   1.001
 2015SOL     OW 6057   2.201   2.371   1.006
 2015SOL    HW1 6058   2.149   2.288   0.989
 2015SOL    HW2 6059   2.278   2.376   0.942
 2016SOL     OW 6060   3.000   2.242   1.678
 2016SOL    HW1 6061   2.955   2.305   1.742
 2016SOL    HW2 6062   3.093   2.273   1.661
 2017SOL     OW 6063   3.022   2.069   1.477
 2017SOL    HW1 6064   3.022   2.133   1.554
 2017SOL    HW2 6065   3.050   2.117   1.394
 2018SOL     OW 6066   1.870   3.188   0.200
 2018SOL    HW1 6067   1.777   3.209   0.169
 2018SOL    HW2 6068   1.880   3.089   0.213
 2019SOL     OW 6069   1.950   3.663   0.927
 2019SOL    HW1 6070   1.908   3.577   0.900
 2019SOL    HW2 6071   2.044   3.666   0.893
 2020SOL     OW 6072   2.366   3.430   0.910
 2020SOL    HW1 6073   2.432   3.504   0.919
 2020SOL    HW2 6074   2.410   3.351   0.868
 2021SOL     OW 6075   2.864   2.658   1.238
 2021SOL    HW1 6076   2.905   2.626   1.324
 2021SOL    HW2 6077   2.768   2.631   1.235
 2022SOL     OW 6078   1.902   2.406   1.114
 2022SOL    HW1 6079   1.987   2.373   1.073
 2022SOL    HW2 6080   1.915   2.421   1.212
 2023SOL     OW 6081   2.051   2.382   1.722
 2023SOL    HW1 6082   2.110   2.342   1.652
 2023SOL    HW2 6083   1.993   2.453   1.681
 2024SOL     OW 6084   3.231   2.812   1.660
 2024SOL    HW1 6085   3.270   2.901   1.680
 2024SOL    HW2 6086   3.241   2.792   1.563
 2025SOL     OW 6087   2.677   2.434   0.325
 2025SOL    HW1 6088   2.684   2.345   0.279
 2025SOL    HW2 6089   2.583   2.468   0.317
 2026SOL     OW 6090   3.519   2.466   1.206
 2026SOL    HW1 6091   3.481   2.397   1.268
 2026SOL    HW2 6092   3.601   2.430   1.162
 2027SOL     OW 6093   2.114   3.426   1.744
 2027SOL    HW1 6094   2.084   3.483   1.820
 2027SOL    HW2 6095   2.107   3.329   1.770
 2028SOL     OW 6096   2.533   2.326   1.269
 2028SOL    HW1 6097   2.499   2.237   1.239
 2028SOL    HW2 6098   2.559   2.380   1.189
 2029SOL     OW 6099   2.792   3.540   1.465
 2029SOL    HW1 6100   2.768   3.522   1.370
 2029SOL    HW2 6101   2.822   3.634   1.475
 2030SOL     OW 6102   2.335   2.362   0.191
 2030SOL    HW1 6103   2.396   2.442   0.195
 2030SOL    HW2 6104   2.240   2.393   0.198
 2031SOL     OW 6105   2.021   2.999   1.466
 2031SOL    HW1 6106   2.043   2.938   1.542
 2031SOL    HW2 6107   2.031   2.950   1.380
 2032SOL     OW 6108   3.209   2.921   1.234
 2032SOL    HW1 6109   3.233   2.858   1.160
 2032SOL    HW2 6110   3.119   2.961   1.216
 2033SOL     OW 6111   3.164   2.717   0.309
 2033SOL    HW1 6112   3.078   2.686   0.351
 2033SOL    HW2 6113   3.160   2.703   0.210
 2034SOL     OW 6114   3.621   3.609   1.154
 2034SOL    HW1 6115   3.682   3.639   1.081
 2034SOL    HW2 6116   3.583   3.520   1.132
 2035SOL     OW 6117   3.114   3.593   1.128
 2035SOL    HW1 6118   3.198   3.598   1.074
 2035SOL    HW2 6119   3.091   3.497   1.146
 2036SOL     OW 6120   1.945   3.120   1.022
 2036SOL    HW1 6121   1.940   3.119   1.122
 2036SOL    HW2 6122   1.862   3.079   0.984
 2037SOL     OW 6123   2.550   3.524   1.716
 2037SOL    HW1 6124   2.494   3.605   1.725
 2037SOL    HW2 6125   2.602   3.528   1.630
 2038SOL     OW 6126   2.765   1.948   0.133
 2038SOL    HW1 6127   2.816   1.949   0.047
 2038SOL    HW2 6128   2.821   1.906   0.204
 2039SOL     OW 6129   3.588   1.997   0.523
 2039SOL    HW1 6130   3.661   1.980   0.456
 2039SOL    HW2 6131   3.557   1.910   0.561
 2040SOL     OW 6132   3.250   3.435   0.477
 2040SOL    HW1 6133   3.317   3.447   0.403
 2040SOL    HW2 6134   3.210   3.524   0.500
 2041SOL     OW 6135   1.992   3.656   1.851
 2041SOL    HW1 6136   1.951   3.582   1.904
 2041SOL    HW2 6137   2.056   3.707   1.909
 2042SOL     OW 6138   3.142   2.789   0.672
 2042SOL    HW1 6139   3.202   2.708   0.674
 2042SOL    HW2 6140   3.182   2.858   0.612
 2043SOL     OW 6141   2.692   3.135   1.422
 2043SOL    HW1 6142   2.687   3.168   1.517
 2043SOL    HW2 6143   2.606   3.154   1.376
 2044SOL     OW 6144   2.534   3.478   0.154
 2044SOL    HW1 6145   2.543   3.488   0.055
 2044SOL    HW2 6146   2.494   3.389   0.175
 2045SOL     OW 6147   3.512   3.582   1.394
 2045SOL    HW1 6148   3.565   3.592   1.310
 2045SOL    HW2 6149   3.485   3.672   1.428
 2046SOL     OW 6150   3.703   2.037   0.963
 2046SOL    HW1 6151   3.742   1.952   0.927
 2046SOL    HW2 6152   3.605   2.039   0.944
 2047SOL     OW 6153   2.125   2.188   0.720
 2047SOL    HW1 6154   2.046   2.239   0.686
 2047SOL    HW2 6155   2.116   2.173   0.818
 2048SOL     OW 6156   3.056   3.474   0.031
 2048SOL    HW1 6157   3.062   3.381   0.068
 2048SOL    HW2 6158   2.997   3.474  -0.049
 2049SOL     OW 6159   2.684   2.864   1.372
 2049SOL    HW1 6160   2.724   2.863   1.280
 2049SOL    HW2 6161   2.694   2.956   1.412
 2050SOL     OW 6162   2.778   2.772   0.291
 2050SOL    HW1 6163   2.841   2.810   0.223
 2050SOL    HW2 6164   2.818   2.689   0.330
 2051SOL     OW 6165   3.366   3.469   0.044
 2051SOL    HW1 6166   3.274   3.506   0.051
 2051SOL    HW2 6167   3.404   3.489  -0.046
 2052SOL     OW 6168   2.234   3.150   1.490
 2052SOL    HW1 6169   2.221   3.243   1.456
 2052SOL    HW2 6170   2.150   3.098   1.477
 2053SOL     OW 6171   3.476   3.154   1.289
 2053SOL    HW1 6172   3.536   3.157   1.369
 2053SOL    HW2 6173   3.401   3.218   1.302
 2054SOL     OW 6174   2.901   2.960   0.696
 2054SOL    HW1 6175   2.831   2.913   0.750
 2054SOL    HW2 6176   2.960   2.892   0.653
 2055SOL     OW 6177   2.876   2.098   0.971
 2055SOL    HW1 6178   2.868   2.062   0.878
 2055SOL    HW2 6179   2.874   2.022   1.036
 2056SOL     OW 6180   2.452   3.349   0.491
 2056SOL    HW1 6181   2.494   3.291   0.421
 2056SOL    HW2 6182   2.408   3.428   0.447
 2057SOL     OW 6183   3.571   2.247   1.381
 2057SOL    HW1 6184   3.644   2.316   1.385
 2057SOL    HW2 6185   3.599   2.172   1.322
 2058SOL     OW 6186   2.117   3.210   0.290
 2058SOL    HW1 6187   2.021   3.211   0.263
 2058SOL    HW2 6188   2.129   3.263   0.374
 2059SOL     OW 6189   1.967   2.875   1.726
 2059SOL    HW1 6190   1.890   2.842   1.780
 2059SOL    HW2 6191   2.052   2.845   1.768
 2060SOL     OW 6192   2.534   2.065   1.489
 2060SOL    HW1 6193   2.624   2.049   1.449
 2060SOL    HW2 6194   2.542   2.070   1.588
 2061SOL     OW 6195   3.302   2.718   1.398
 2061SOL    HW1 6196   3.245   2.770   1.335
 2061SOL    HW2 6197   3.398   2.730   1.374
 2062SOL     OW 6198   1.934   2.028   0.318
 2062SOL    HW1 6199   1.917   2.111   0.264
 2062SOL    HW2 6200   2.024   1.991   0.296
 2063SOL     OW 6201   3.045   3.197   0.119
 2063SOL    HW1 6202   2.946   3.186   0.121
 2063SOL    HW2 6203   3.079   3.212   0.212
 2064SOL     OW 6204   2.475   2.704   1.431
 2064SOL    HW1 6205   2.531   2.785   1.414
 2064SOL    HW2 6206   2.534   2.624   1.434
 2065SOL     OW 6207   3.355   3.629   0.959
 2065SOL    HW1 6208   3.388   3.693   0.890
 2065SOL    HW2 6209   3.421   3.623   1.034
 2066SOL     OW 6210   2.578   2.427   1.708
 2066SOL    HW1 6211   2.597   2.492   1.782
 2066SOL    HW2 6212   2.638   2.347   1.717
 2067SOL     OW 6213   3.312   3.082   1.633
 2067SOL    HW1 6214   3.303   3.072   1.732
 2067SOL    HW2 6215   3.408   3.075   1.607
 2068SOL     OW 6216   2.252   3.603   1.560
 2068SOL    HW1 6217   2.161   3.644   1.558
 2068SOL    HW2 6218   2.245   3.509   1.592
 2069SOL     OW 6219   3.536   2.745   1.254
 2069SOL    HW1 6220   3.509   2.656   1.217
 2069SOL    HW2 6221   3.537   2.813   1.181
 2070SOL     OW 6222   3.087   2.187   0.449
 2070SOL    HW1 6223   3.152   2.113   0.438
 2070SOL    HW2 6224   3.107   2.237   0.533
 2071SOL     OW 6225   2.456   2.607   0.652
 2071SOL    HW1 6226   2.506   2.692   0.633
 2071SOL    HW2 6227   2.368   2.609   0.604
 2072SOL     OW 6228   3.639   2.204   1.642
 2072SOL    HW1 6229   3.622   2.235   1.548
 2072SOL    HW2 6230   3.555   2.167   1.680
 2073SOL     OW 6231   3.592   2.796   1.517
 2073SOL    HW1 6232   3.630   2.887   1.532
 2073SOL    HW2 6233   3.584   2.779   1.418
 2074SOL     OW 6234   2.721   3.236   0.016
 2074SOL    HW1 6235   2.675   3.251   0.104
 2074SOL    HW2 6236   2.765   3.321  -0.014
 2075SOL     OW 6237   2.523   3.652   0.953
 2075SOL    HW1 6238   2.477   3.740   0.940
 2075SOL    HW2 6239   2.622   3.664   0.946
 2076SOL     OW 6240   2.721   2.818   0.861
 2076SOL    HW1 6241   2.775   2.749   0.909
 2076SOL    HW2 6242   2.689   2.887   0.927
 2077SOL     OW 6243   2.945   2.846   0.087
 2077SOL    HW1 6244   2.922   2.899   0.005
 2077SOL    HW2 6245   3.026   2.790   0.068
 2078SOL     OW 6246   3.723   3.431   0.851
 2078SOL    HW1 6247   3.652   3.419   0.781
 2078SOL    HW2 6248   3.724   3.352   0.911
 2079SOL     OW 6249   2.083   3.176   1.844
 2079SOL    HW1 6250   2.018   3.103   1.823
 2079SOL    HW2 6251   2.087   3.190   1.942
 2080SOL     OW 6252   1.941   3.102   0.653
 2080SOL    HW1 6253   1.940   3.055   0.741
 2080SOL    HW2 6254   2.023   3.074   0.602
 2081SOL     OW 6255   2.534   3.253   1.624
 2081SOL    HW1 6256   2.456   3.203   1.662
 2081SOL    HW2 6257   2.531   3.348   1.655
 2082SOL     OW 6258   3.686   2.054   1.227
 2082SOL    HW1 6259   3.682   1.964   1.271
 2082SOL    HW2 6260   3.689   2.043   1.128
 2083SOL     OW 6261   2.290   2.286   0.520
 2083SOL    HW1 6262   2.320   2.214   0.458
 2083SOL    HW2 6263   2.251   2.246   0.603
 2084SOL     OW 6264   3.567   3.349   1.104
 2084SOL    HW1 6265   3.474   3.324   1.077
 2084SOL    HW2 6266   3.593   3.299   1.186
 2085SOL     OW 6267   2.179   2.409   1.280
 2085SOL    HW1 6268   2.217   2.350   1.352
 2085SOL    HW2 6269   2.219   2.383   1.192
 2086SOL     OW 6270   2.674   3.448   0.687
 2086SOL    HW1 6271   2.706   3.458   0.593
 2086SOL    HW2 6272   2.595   3.386   0.689
 2087SOL     OW 6273   3.286   2.076   1.112
 2087SOL    HW1 6274   3.338   2.011   1.167
 2087SOL    HW2 6275   3.237   2.139   1.173
 2088SOL     OW 6276   2.863   1.896   1.154
 2088SOL    HW1 6277   2.800   1.824   1.123
 2088SOL    HW2 6278   2.956   1.860   1.154
 2089SOL     OW 6279   2.632   3.192   0.301
 2089SOL    HW1 6280   2.586   3.105   0.318
 2089SOL    HW2 6281   2.723   3.189   0.342
 2090SOL     OW 6282   2.480   3.429   1.284
 2090SOL    HW1 6283   2.475   3.511   1.341
 2090SOL    HW2 6284   2.569   3.426   1.239
 2091SOL     OW 6285   3.214   1.914   0.168
 2091SOL    HW1 6286   3.249   1.873   0.084
 2091SOL    HW2 6287   3.124   1.876   0.188
 2092SOL     OW 6288   3.162   2.315   0.691
 2092SOL    HW1 6289   3.103   2.395   0.695
 2092SOL    HW2 6290   3.177   2.280   0.784
 2093SOL     OW 6291   3.455   2.083   0.882
 2093SOL    HW1 6292   3.371   2.082   0.936
 2093SOL    HW2 6293   3.457   2.166   0.826
 2094SOL     OW 6294   1.901   2.939   0.300
 2094SOL    HW1 6295   2.000   2.928   0.291
 2094SOL    HW2 6296   1.861   2.853   0.332
 2095SOL     OW 6297   2.737   3.508   0.337
 2095SOL    HW1 6298   2.660   3.473   0.283
 2095SOL    HW2 6299   2.705   3.579   0.399
 2096SOL     OW 6300   2.092   2.490   1.975
 2096SOL    HW1 6301   1.999   2.488   2.012
 2096SOL    HW2 6302   2.093   2.451   1.883
 2097SOL     OW 6303   2.087   2.137   2.858
 2097SOL    HW1 6304   2.122   2.120   2.950
 2097SOL    HW2 6305   1.999   2.092   2.846
 2098SOL     OW 6306   1.881   2.230   2.509
 2098SOL    HW1 6307   1.799   2.273   2.548
 2098SOL    HW2 6308   1.853   2.157   2.446
 2099SOL     OW 6309   2.431   3.137   3.027
 2099SOL    HW1 6310   2.338   3.130   2.990
 2099SOL    HW2 6311   2.442   3.226   3.071
 2100SOL     OW 6312   3.417   3.373   2.565
 2100SOL    HW1 6313   3.360   3.357   2.646
 2100SOL    HW2 6314   3.358   3.383   2.485
 2101SOL     OW 6315   2.997   2.565   2.579
 2101SOL    HW1 6316   3.054   2.643   2.554
 2101SOL    HW2 6317   2.937   2.591   2.655
 2102SOL     OW 6318   3.617   2.469   2.093
 2102SOL    HW1 6319   3.605   2.456   1.994
 2102SOL    HW2 6320   3.587   2.388   2.142
 2103SOL     OW 6321   2.630   3.006   2.885
 2103SOL    HW1 6322   2.552   3.023   2.945
 2103SOL    HW2 6323   2.664   3.093   2.849
 2104SOL     OW 6324   2.712   2.660   3.685
 2104SOL    HW1 6325   2.708   2.736   3.750
 2104SOL    HW2 6326   2.734   2.696   3.594
 2105SOL     OW 6327   2.547   2.874   2.527
 2105SOL    HW1 6328   2.616   2.858   2.597
 2105SOL    HW2 6329   2.474   2.931   2.565
 2106SOL     OW 6330   2.548   3.023   3.665
 2106SOL    HW1 6331   2.608   3.102   3.679
 2106SOL    HW2 6332   2.462   3.054   3.624
 2107SOL     OW 6333   2.197   3.297   2.923
 2107SOL    HW1 6334   2.119   3.266   2.870
 2107SOL    HW2 6335   2.255   3.355   2.866
 2108SOL     OW 6336   3.322   3.367   3.201
 2108SOL    HW1 6337   3.346   3.461   3.227
 2108SOL    HW2 6338   3.306   3.313   3.283
 2109SOL     OW 6339   2.300   2.254   3.361
 2109SOL    HW1 6340   2.382   2.198   3.370
 2109SOL    HW2 6341   2.219   2.196   3.365
 2110SOL     OW 6342   3.465   2.309   2.599
 2110SOL    HW1 6343   3.391   2.355   2.549
 2110SOL    HW2 6344   3.516   2.377   2.652
 2111SOL     OW 6345   2.093   3.575   2.345
 2111SOL    HW1 6346   2.127   3.652   2.399
 2111SOL    HW2 6347   2.137   3.575   2.255
 2112SOL     OW 6348   2.989   3.203   3.552
 2112SOL    HW1 6349   3.036   3.203   3.640
 2112SOL    HW2 6350   2.941   3.116   3.541
 2113SOL     OW 6351   2.092   3.296   2.400
 2113SOL    HW1 6352   2.066   3.392   2.400
 2113SOL    HW2 6353   2.021   3.242   2.445
 2114SOL     OW 6354   2.102   2.953   2.748
 2114SOL    HW1 6355   2.116   2.869   2.800
 2114SOL    HW2 6356   2.047   3.017   2.803
 2115SOL     OW 6357   2.482   3.648   3.301
 2115SOL    HW1 6358   2.390   3.631   3.336
 2115SOL    HW2 6359   2.510   3.740   3.327
 2116SOL     OW 6360   2.468   2.826   1.985
 2116SOL    HW1 6361   2.475   2.910   1.931
 2116SOL    HW2 6362   2.514   2.839   2.073
 2117SOL     OW 6363   3.456   1.976   3.342
 2117SOL    HW1 6364   3.438   2.043   3.270
 2117SOL    HW2 6365   3.453   2.022   3.431
 2118SOL     OW 6366   1.984   2.505   2.425
 2118SOL    HW1 6367   1.939   2.417   2.442
 2118SOL    HW2 6368   1.983   2.559   2.509
 2119SOL     OW 6369   3.704   3.629   2.221
 2119SOL    HW1 6370   3.758   3.600   2.301
 2119SOL    HW2 6371   3.734   3.719   2.192
 2120SOL     OW 6372   1.889   3.458   1.979
 2120SOL    HW1 6373   1.870   3.362   2.000
 2120SOL    HW2 6374   1.856   3.516   2.054
 2121SOL     OW 6375   3.551   2.784   2.474
 2121SOL    HW1 6376   3.646   2.755   2.482
 2121SOL    HW2 6377   3.543   2.849   2.399
 2122SOL     OW 6378   3.503   2.970   2.294
 2122SOL    HW1 6379   3.589   2.972   2.242
 2122SOL    HW2 6380   3.517   3.017   2.382
 2123SOL     OW 6381   1.975   2.599   3.459
 2123SOL    HW1 6382   2.063   2.586   3.504
 2123SOL    HW2 6383   1.962   2.696   3.437
 2124SOL     OW 6384   2.475   3.227   2.588
 2124SOL    HW1 6385   2.426   3.140   2.597
 2124SOL    HW2 6386   2.452   3.270   2.501
 2125SOL     OW 6387   3.155   3.090   3.285
 2125SOL    HW1 6388   3.192   3.017   3.227
 2125SOL    HW2 6389   3.207   3.095   3.370
 2126SOL     OW 6390   2.671   1.866   2.364
 2126SOL    HW1 6391   2.711   1.957   2.355
 2126SOL    HW2 6392   2.571   1.874   2.370
 2127SOL     OW 6393   2.059   2.838   3.126
 2127SOL    HW1 6394   2.148   2.793   3.112
 2127SOL    HW2 6395   1.986   2.773   3.107
 2128SOL     OW 6396   3.387   2.861   2.052
 2128SOL    HW1 6397   3.324   2.785   2.065
 2128SOL    HW2 6398   3.435   2.879   2.138
 2129SOL     OW 6399   3.049   3.654   3.478
 2129SOL    HW1 6400   3.073   3.714   3.402
 2129SOL    HW2 6401   3.056   3.559   3.448
 2130SOL     OW 6402   2.179   2.113   3.663
 2130SOL    HW1 6403   2.250   2.184   3.669
 2130SOL    HW2 6404   2.091   2.152   3.691
 2131SOL     OW 6405   3.328   3.279   2.815
 2131SOL    HW1 6406   3.269   3.285   2.895
 2131SOL    HW2 6407   3.313   3.191   2.769
 2132SOL     OW 6408   3.529   3.576   2.434
 2132SOL    HW1 6409   3.488   3.553   2.346
 2132SOL    HW2 6410   3.511   3.502   2.499
 2133SOL     OW 6411   2.460   2.591   2.132
 2133SOL    HW1 6412   2.484   2.660   2.064
 2133SOL    HW2 6413   2.382   2.624   2.186
 2134SOL     OW 6414   3.143   2.207   2.806
 2134SOL    HW1 6415   3.057   2.157   2.793
 2134SOL    HW2 6416   3.205   2.153   2.862
 2135SOL     OW 6417   3.438   3.524   2.169
 2135SOL    HW1 6418   3.527   3.570   2.172
 2135SOL    HW2 6419   3.417   3.500   2.074
 2136SOL     OW 6420   2.669   2.467   3.327
 2136SOL    HW1 6421   2.622   2.464   3.416
 2136SOL    HW2 6422   2.618   2.412   3.261
 2137SOL     OW 6423   3.256   2.331   3.536
 2137SOL    HW1 6424   3.236   2.374   3.624
 2137SOL    HW2 6425   3.334   2.269   3.545
 2138SOL     OW 6426   2.835   2.752   3.434
 2138SOL    HW1 6427   2.881   2.668   3.405
 2138SOL    HW2 6428   2.779   2.786   3.359
 2139SOL     OW 6429   2.853   2.272   3.104
 2139SOL    HW1 6430   2.776   2.306   3.158
 2139SOL    HW2 6431   2.819   2.221   3.025
 2140SOL     OW 6432   2.903   2.563   2.291
 2140SOL    HW1 6433   2.929   2.559   2.387
 2140SOL    HW2 6434   2.818   2.512   2.277
 2141SOL     OW 6435   1.938   2.673   2.651
 2141SOL    HW1 6436   2.037   2.661   2.660
 2141SOL    HW2 6437   1.914   2.768   2.672
 2142SOL     OW 6438   1.992   3.683   3.433
 2142SOL    HW1 6439   1.982   3.668   3.532
 2142SOL    HW2 6440   1.906   3.719   3.397
 2143SOL     OW 6441   2.727   2.210   2.057
 2143SOL    HW1 6442   2.786   2.273   2.008
 2143SOL    HW2 6443   2.746   2.116   2.028
 2144SOL     OW 6444   3.581   2.447   3.693
 2144SOL    HW1 6445   3.555   2.536   3.657
 2144SOL    HW2 6446   3.579   2.379   3.620
 2145SOL     OW 6447   3.224   3.006   2.407
 2145SOL    HW1 6448   3.307   2.977   2.359
 2145SOL    HW2 6449   3.175   3.073   2.351
 2146SOL     OW 6450   2.412   2.058   2.747
 2146SOL    HW1 6451   2.407   2.053   2.847
 2146SOL    HW2 6452   2.414   2.154   2.718
 2147SOL     OW 6453   2.870   3.318   2.339
 2147SOL    HW1 6454   2.824   3.390   2.287
 2147SOL    HW2 6455   2.866   3.338   2.437
 2148SOL     OW 6456   2.213   3.663   2.715
 2148SOL    HW1 6457   2.263   3.577   2.721
 2148SOL    HW2 6458   2.278   3.740   2.712
 2149SOL     OW 6459   3.657   2.928   2.735
 2149SOL    HW1 6460   3.595   2.913   2.659
 2149SOL    HW2 6461   3.605   2.939   2.820
 2150SOL     OW 6462   3.089   3.412   3.368
 2150SOL    HW1 6463   3.095   3.335   3.432
 2150SOL    HW2 6464   3.037   3.386   3.288
 2151SOL     OW 6465   2.183   2.805   2.104
 2151SOL    HW1 6466   2.265   2.844   2.062
 2151SOL    HW2 6467   2.156   2.723   2.055
 2152SOL     OW 6468   3.320   2.597   2.590
 2152SOL    HW1 6469   3.315   2.532   2.665
 2152SOL    HW2 6470   3.400   2.656   2.603
 2153SOL     OW 6471   2.323   3.128   3.589
 2153SOL    HW1 6472   2.273   3.129   3.503
 2153SOL    HW2 6473   2.260   3.110   3.665
 2154SOL     OW 6474   2.973   3.638   2.099
 2154SOL    HW1 6475   2.913   3.576   2.149
 2154SOL    HW2 6476   3.004   3.594   2.014
 2155SOL     OW 6477   2.064   2.147   3.360
 2155SOL    HW1 6478   1.984   2.207   3.347
 2155SOL    HW2 6479   2.054   2.098   3.446
 2156SOL     OW 6480   3.494   3.239   1.943
 2156SOL    HW1 6481   3.462   3.333   1.933
 2156SOL    HW2 6482   3.418   3.176   1.931
 2157SOL     OW 6483   2.326   3.605   2.185
 2157SOL    HW1 6484   2.359   3.644   2.271
 2157SOL    HW2 6485   2.402   3.598   2.120
 2158SOL     OW 6486   3.262   1.969   2.288
 2158SOL    HW1 6487   3.238   1.932   2.198
 2158SOL    HW2 6488   3.361   1.985   2.292
 2159SOL     OW 6489   2.111   3.647   3.103
 2159SOL    HW1 6490   2.168   3.582   3.153
 2159SOL    HW2 6491   2.095   3.614   3.010
 2160SOL     OW 6492   2.802   3.560   2.766
 2160SOL    HW1 6493   2.882   3.503   2.787
 2160SOL    HW2 6494   2.753   3.520   2.689
 2161SOL     OW 6495   3.409   2.084   3.591
 2161SOL    HW1 6496   3.404   2.121   3.683
 2161SOL    HW2 6497   3.337   2.015   3.579
 2162SOL     OW 6498   2.476   1.984   1.979
 2162SOL    HW1 6499   2.574   1.962   1.986
 2162SOL    HW2 6500   2.445   1.967   1.886
 2163SOL     OW 6501   2.643   2.126   3.611
 2163SOL    HW1 6502   2.710   2.065   3.654
 2163SOL    HW2 6503   2.570   2.145   3.676
 2164SOL     OW 6504   2.750   3.376   3.057
 2164SOL    HW1 6505   2.727   3.351   2.963
 2164SOL    HW2 6506   2.811   3.307   3.096
 2165SOL     OW 6507   3.213   2.452   3.295
 2165SOL    HW1 6508   3.241   2.409   3.380
 2165SOL    HW2 6509   3.238   2.548   3.296
 2166SOL     OW 6510   2.665   3.264   2.786
 2166SOL    HW1 6511   2.755   3.278   2.744
 2166SOL    HW2 6512   2.594   3.266   2.715
 2167SOL     OW 6513   2.784   2.365   2.761
 2167SOL    HW1 6514   2.759   2.356   2.665
 2167SOL    HW2 6515   2.832   2.283   2.792
 2168SOL     OW 6516   2.401   1.926   2.374
 2168SOL    HW1 6517   2.320   1.927   2.432
 2168SOL    HW2 6518   2.404   2.009   2.319
 2169SOL     OW 6519   3.296   3.050   1.903
 2169SOL    HW1 6520   3.328   2.974   1.960
 2169SOL    HW2 6521   3.204   3.077   1.933
 2170SOL     OW 6522   2.159   1.897   2.033
 2170SOL    HW1 6523   2.208   1.981   2.012
 2170SOL    HW2 6524   2.221   1.832   2.078
 2171SOL     OW 6525   2.797   2.098   2.342
 2171SOL    HW1 6526   2.749   2.139   2.264
 2171SOL    HW2 6527   2.896   2.096   2.323
 2172SOL     OW 6528   2.938   2.545   3.326
 2172SOL    HW1 6529   2.858   2.484   3.329
 2172SOL    HW2 6530   3.019   2.492   3.302
 2173SOL     OW 6531   3.089   3.432   2.655
 2173SOL    HW1 6532   3.110   3.506   2.590
 2173SOL    HW2 6533   3.157   3.432   2.728
 2174SOL     OW 6534   2.321   3.014   2.603
 2174SOL    HW1 6535   2.250   2.987   2.668
 2174SOL    HW2 6536   2.295   2.986   2.510
 2175SOL     OW 6537   3.133   3.659   2.453
 2175SOL    HW1 6538   3.177   3.723   2.389
 2175SOL    HW2 6539   3.083   3.711   2.523
 2176SOL     OW 6540   2.894   2.411   1.878
 2176SOL    HW1 6541   2.853   2.493   1.839
 2176SOL    HW2 6542   2.958   2.437   1.951
 2177SOL     OW 6543   1.940   2.418   3.248
 2177SOL    HW1 6544   2.032   2.417   3.207
 2177SOL    HW2 6545   1.934   2.492   3.315
 2178SOL     OW 6546   2.423   2.084   3.009
 2178SOL    HW1 6547   2.461   2.000   3.046
 2178SOL    HW2 6548   2.335   2.103   3.053
 2179SOL     OW 6549   2.728   2.316   2.504
 2179SOL    HW1 6550   2.696   2.388   2.442
 2179SOL    HW2 6551   2.752   2.235   2.451
 2180SOL     OW 6552   2.879   1.901   2.615
 2180SOL    HW1 6553   2.807   1.906   2.546
 2180SOL    HW2 6554   2.855   1.832   2.684
 2181SOL     OW 6555   3.291   3.035   2.729
 2181SOL    HW1 6556   3.236   2.951   2.722
 2181SOL    HW2 6557   3.317   3.064   2.637
 2182SOL     OW 6558   3.328   2.452   2.854
 2182SOL    HW1 6559   3.298   2.357   2.861
 2182SOL    HW2 6560   3.401   2.468   2.920
 2183SOL     OW 6561   3.719   2.695   2.239
 2183SOL    HW1 6562   3.761   2.631   2.303
 2183SOL    HW2 6563   3.681   2.644   2.161
 2184SOL     OW 6564   2.350   3.247   2.036
 2184SOL    HW1 6565   2.263   3.232   2.083
 2184SOL    HW2 6566   2.333   3.273   1.941
 2185SOL     OW 6567   3.526   3.142   2.519
 2185SOL    HW1 6568   3.625   3.150   2.533
 2185SOL    HW2 6569   3.481   3.226   2.550
 2186SOL     OW 6570   3.252   2.437   1.940
 2186SOL    HW1 6571   3.198   2.416   2.021
 2186SOL    HW2 6572   3.343   2.396   1.949
 2187SOL     OW 6573   3.616   3.085   3.450
 2187SOL    HW1 6574   3.707   3.046   3.437
 2187SOL    HW2 6575   3.624   3.181   3.474
 2188SOL     OW 6576   2.926   3.209   3.202
 2188SOL    HW1 6577   2.846   3.186   3.257
 2188SOL    HW2 6578   3.009   3.183   3.251
 2189SOL     OW 6579   3.454   3.491   3.487
 2189SOL    HW1 6580   3.481   3.525   3.397
 2189SOL    HW2 6581   3.533   3.453   3.533
 2190SOL     OW 6582   2.973   3.057   2.962
 2190SOL    HW1 6583   2.933   3.101   3.043
 2190SOL    HW2 6584   2.932   3.094   2.879
 2191SOL     OW 6585   3.500   2.961   2.941
 2191SOL    HW1 6586   3.505   3.042   3.000
 2191SOL    HW2 6587   3.414   2.963   2.890
 2192SOL     OW 6588   2.777   1.951   3.264
 2192SOL    HW1 6589   2.802   1.931   3.169
 2192SOL    HW2 6590   2.849   2.007   3.306
 2193SOL     OW 6591   2.842   2.978   3.581
 2193SOL    HW1 6592   2.743   2.984   3.591
 2193SOL    HW2 6593   2.865   2.898   3.525
 2194SOL     OW 6594   2.567   2.912   2.230
 2194SOL    HW1 6595   2.553   2.919   2.329
 2194SOL    HW2 6596   2.651   2.861   2.212
 2195SOL     OW 6597   2.272   2.675   3.113
 2195SOL    HW1 6598   2.358   2.687   3.163
 2195SOL    HW2 6599   2.230   2.588   3.140
 2196SOL     OW 6600   3.136   2.248   3.124
 2196SOL    HW1 6601   3.157   2.322   3.188
 2196SOL    HW2 6602   3.047   2.265   3.081
 2197SOL     OW 6603   1.926   3.426   3.193
 2197SOL    HW1 6604   1.880   3.508   3.159
 2197SOL    HW2 6605   2.024   3.445   3.202
 2198SOL     OW 6606   2.229   2.962   2.363
 2198SOL    HW1 6607   2.222   3.045   2.307
 2198SOL    HW2 6608   2.233   2.882   2.303
 2199SOL     OW 6609   3.114   3.210   2.250
 2199SOL    HW1 6610   3.164   3.287   2.290
 2199SOL    HW2 6611   3.019   3.212   2.282
 2200SOL     OW 6612   3.134   3.307   3.004
 2200SOL    HW1 6613   3.181   3.320   3.091
 2200SOL    HW2 6614   3.068   3.233   3.013
 2201SOL     OW 6615   3.444   2.501   2.334
 2201SOL    HW1 6616   3.413   2.562   2.407
 2201SOL    HW2 6617   3.494   2.553   2.265
 2202SOL     OW 6618   2.216   3.372   3.191
 2202SOL    HW1 6619   2.195   3.328   3.104
 2202SOL    HW2 6620   2.313   3.398   3.194
 2203SOL     OW 6621   2.264   2.613   3.460
 2203SOL    HW1 6622   2.332   2.668   3.413
 2203SOL    HW2 6623   2.304   2.525   3.487
 2204SOL     OW 6624   3.449   2.641   3.532
 2204SOL    HW1 6625   3.357   2.679   3.527
 2204SOL    HW2 6626   3.509   2.688   3.467
 2205SOL     OW 6627   2.875   1.967   3.632
 2205SOL    HW1 6628   2.881   2.052   3.580
 2205SOL    HW2 6629   2.907   1.891   3.575
 2206SOL     OW 6630   2.366   1.912   3.602
 2206SOL    HW1 6631   2.324   1.855   3.532
 2206SOL    HW2 6632   2.300   1.981   3.634
 2207SOL     OW 6633   2.435   2.732   2.891
 2207SOL    HW1 6634   2.479   2.821   2.882
 2207SOL    HW2 6635   2.372   2.732   2.968
 2208SOL     OW 6636   3.222   2.724   2.907
 2208SOL    HW1 6637   3.147   2.724   2.841
 2208SOL    HW2 6638   3.259   2.632   2.916
 2209SOL     OW 6639   3.071   2.387   2.137
 2209SOL    HW1 6640   3.084   2.303   2.191
 2209SOL    HW2 6641   3.042   2.461   2.197
 2210SOL     OW 6642   2.169   2.075   3.093
 2210SOL    HW1 6643   2.146   2.112   3.183
 2210SOL    HW2 6644   2.139   1.980   3.087
 2211SOL     OW 6645   1.899   3.172   3.144
 2211SOL    HW1 6646   1.952   3.123   3.212
 2211SOL    HW2 6647   1.921   3.270   3.149
 2212SOL     OW 6648   2.594   2.496   2.926
 2212SOL    HW1 6649   2.653   2.470   2.850
 2212SOL    HW2 6650   2.566   2.592   2.915
 2213SOL     OW 6651   3.590   2.797   3.716
 2213SOL    HW1 6652   3.544   2.790   3.627
 2213SOL    HW2 6653   3.528   2.841   3.782
 2214SOL     OW 6654   2.169   1.925   2.480
 2214SOL    HW1 6655   2.158   2.019   2.513
 2214SOL    HW2 6656   2.164   1.862   2.557
 2215SOL     OW 6657   3.484   2.229   2.236
 2215SOL    HW1 6658   3.486   2.153   2.300
 2215SOL    HW2 6659   3.436   2.306   2.276
 2216SOL     OW 6660   2.885   2.628   2.828
 2216SOL    HW1 6661   2.900   2.649   2.924
 2216SOL    HW2 6662   2.855   2.533   2.819
 2217SOL     OW 6663   2.842   3.435   3.562
 2217SOL    HW1 6664   2.822   3.479   3.474
 2217SOL    HW2 6665   2.881   3.344   3.546
 2218SOL     OW 6666   3.721   3.380   3.467
 2218SOL    HW1 6667   3.735   3.407   3.372
 2218SOL    HW2 6668   3.804   3.402   3.520
 2219SOL     OW 6669   2.212   2.760   3.666
 2219SOL    HW1 6670   2.288   2.804   3.714
 2219SOL    HW2 6671   2.247   2.713   3.584
 2220SOL     OW 6672   3.402   2.136   1.987
 2220SOL    HW1 6673   3.341   2.061   2.010
 2220SOL    HW2 6674   3.424   2.188   2.070
 2221SOL     OW 6675   3.165   2.700   1.904
 2221SOL    HW1 6676   3.199   2.607   1.919
 2221SOL    HW2 6677   3.183   2.727   1.809
 2222SOL     OW 6678   2.930   3.195   2.711
 2222SOL    HW1 6679   2.937   3.111   2.656
 2222SOL    HW2 6680   2.992   3.264   2.675
 2223SOL     OW 6681   2.181   2.672   2.811
 2223SOL    HW1 6682   2.274   2.708   2.816
 2223SOL    HW2 6683   2.175   2.587   2.863
 2224SOL     OW 6684   3.000   2.242   3.540
 2224SOL    HW1 6685   2.955   2.305   3.604
 2224SOL    HW2 6686   3.093   2.273   3.523
 2225SOL     OW 6687   3.022   2.069   3.339
 2225SOL    HW1 6688   3.022   2.133   3.416
 2225SOL    HW2 6689   3.050   2.117   3.256
 2226SOL     OW 6690   1.870   3.188   2.062
 2226SOL    HW1 6691   1.777   3.209   2.031
 2226SOL    HW2 6692   1.880   3.089   2.075
 2227SOL     OW 6693   1.950   3.663   2.789
 2227SOL    HW1 6694   1.908   3.577   2.762
 2227SOL    HW2 6695   2.044   3.666   2.755
 2228SOL     OW 6696   2.366   3.430   2.772
 2228SOL    HW1 6697   2.432   3.504   2.781
 2228SOL    HW2 6698   2.410   3.351   2.730
 2229SOL     OW 6699   2.864   2.658   3.100
 2229SOL    HW1 6700   2.905   2.626   3.186
 2229SOL    HW2 6701   2.768   2.631   3.097
 2230SOL     OW 6702   1.902   2.406   2.976
 2230SOL    HW1 6703   1.987   2.373   2.935
 2230SOL    HW2 6704   1.915   2.421   3.074
 2231SOL     OW 6705   2.051   2.382   3.584
 2231SOL    HW1 6706   2.110   2.342   3.514
 2231SOL    HW2 6707   1.993   2.453   3.543
 2232SOL     OW 6708   3.231   2.812   3.522
 2232SOL    HW1 6709   3.270   2.901   3.542
 2232SOL    HW2 6710   3.241   2.792   3.425
 2233SOL     OW 6711   2.677   2.434   2.187
 2233SOL    HW1 6712   2.684   2.345   2.141
 2233SOL    HW2 6713   2.583   2.468   2.179
 2234SOL     OW 6714   3.519   2.466   3.068
 2234SOL    HW1 6715   3.481   2.397   3.130
 2234SOL    HW2 6716   3.601   2.430   3.024
 2235SOL     OW 6717   2.114   3.426   3.606
 2235SOL    HW1 6718   2.084   3.483   3.682
 2235SOL    HW2 6719   2.107   3.329   3.632
 2236SOL     OW 6720   2.533   2.326   3.131
 2236SOL    HW1 6721   2.499   2.237   3.101
 2236SOL    HW2 6722   2.559   2.380   3.051
 2237SOL     OW 6723   2.792   3.540   3.327
 2237SOL    HW1 6724   2.768   3.522   3.232
 2237SOL    HW2 6725   2.822   3.634   3.337
 2238SOL     OW 6726   2.021   2.999   3.328
 2238SOL    HW1 6727   2.043   2.938   3.404
 2238SOL    HW2 6728   2.031   2.950   3.242
 2239SOL     OW 6729   3.209   2.921   3.096
 2239SOL    HW1 6730   3.233   2.858   3.022
 2239SOL    HW2 6731   3.119   2.961   3.078
 2240SOL     OW 6732   3.164   2.717   2.171
 2240SOL    HW1 6733   3.078   2.686   2.213
 2240SOL    HW2 6734   3.160   2.703   2.072
 2241SOL     OW 6735   3.621   3.609   3.016
 2241SOL    HW1 6736   3.682   3.639   2.943
 2241SOL    HW2 6737   3.583   3.520   2.994
 2242SOL     OW 6738   3.114   3.593   2.990
 2242SOL    HW1 6739   3.198   3.598   2.936
 2242SOL    HW2 6740   3.091   3.497   3.008
 2243SOL     OW 6741   1.945   3.120   2.884
 2243SOL    HW1 6742   1.940   3.119   2.984
 2243SOL    HW2 6743   1.862   3.079   2.846
 2244SOL     OW 6744   2.550   3.524   3.578
 2244SOL    HW1 6745   2.494   3.605   3.587
 2244SOL    HW2 6746   2.602   3.528   3.492
 2245SOL     OW 6747   3.588   1.997   2.385
 2245SOL    HW1 6748   3.661   1.980   2.318
 2245SOL    HW2 6749   3.557   1.910   2.423
 2246SOL     OW 6750   3.250   3.435   2.339
 2246SOL    HW1 6751   3.317   3.447   2.265
 2246SOL    HW2 6752   3.210   3.524   2.362
 2247SOL     OW 6753   1.992   3.656   3.713
 2247SOL    HW1 6754   1.951   3.582   3.766
 2247SOL    HW2 6755   2.056   3.707   3.771
 2248SOL     OW 6756   3.142   2.789   2.534
 2248SOL    HW1 6757   3.202   2.708   2.536
 2248SOL    HW2 6758   3.182   2.858   2.474
 2249SOL     OW 6759   2.692   3.135   3.284
 2249SOL    HW1 6760   2.687   3.168   3.379
 2249SOL    HW2 6761   2.606   3.154   3.238
 2250SOL     OW 6762   2.534   3.478   2.016
 2250SOL    HW1 6763   2.543   3.488   1.917
 2250SOL    HW2 6764   2.494   3.389   2.037
 2251SOL     OW 6765   3.512   3.582   3.256
 2251SOL    HW1 6766   3.565   3.592   3.172
 2251SOL    HW2 6767   3.485   3.672   3.290
 2252SOL     OW 6768   3.703   2.037   2.825
 2252SOL    HW1 6769   3.742   1.952   2.789
 2252SOL    HW2 6770   3.605   2.039   2.806
 2253SOL     OW 6771   2.125   2.188   2.582
 2253SOL    HW1 6772   2.046   2.239   2.548
 2253SOL    HW2 6773   2.116   2.173   2.680
 2254SOL     OW 6774   3.056   3.474   1.893
 2254SOL    HW1 6775   3.062   3.381   1.930
 2254SOL    HW2 6776   2.997   3.474   1.813
 2255SOL     OW 6777   2.684   2.864   3.234
 2255SOL    HW1 6778   2.724   2.863   3.142
 2255SOL    HW2 6779   2.694   2.956   3.274
 2256SOL     OW 6780   2.778   2.772   2.153
 2256SOL    HW1 6781   2.841   2.810   2.085
 2256SOL    HW2 6782   2.818   2.689   2.192
 2257SOL     OW 6783   3.366   3.469   1.906
 2257SOL    HW1 6784   3.274   3.506   1.913
 2257SOL    HW2 6785   3.404   3.489   1.816
 2258SOL     OW 6786   2.234   3.150   3.352
 2258SOL    HW1 6787   2.221   3.243   3.318
 2258SOL    HW2 6788   2.150   3.098   3.339
 2259SOL     OW 6789   3.476   3.154   3.151
 2259SOL    HW1 6790   3.536   3.157   3.231
 2259SOL    HW2 6791   3.401   3.218   3.164
 2260SOL     OW 6792   2.901   2.960   2.558
 2260SOL    HW1 6793   2.831   2.913   2.612
 2260SOL    HW2 6794   2.960   2.892   2.515
 2261SOL     OW 6795   2.876   2.098   2.833
 2261SOL    HW1 6796   2.868   2.062   2.740
 2261SOL    HW2 6797   2.874   2.022   2.898
 2262SOL     OW 6798   2.452   3.349   2.353
 2262SOL    HW1 6799   2.494   3.291   2.283
 2262SOL    HW2 6800   2.408   3.428   2.309
 2263SOL     OW 6801   3.571   2.247   3.243
 2263SOL    HW1 6802   3.644   2.316   3.247
 2263SOL    HW2 6803   3.599   2.172   3.184
 2264SOL     OW 6804   2.117   3.210   2.152
 2264SOL    HW1 6805   2.021   3.211   2.125
 2264SOL    HW2 6806   2.129   3.263   2.236
 2265SOL     OW 6807   1.967   2.875   3.588
 2265SOL    HW1 6808   1.890   2.842   3.642
 2265SOL    HW2 6809   2.052   2.845   3.630
 2266SOL     OW 6810   2.534   2.065   3.351
 2266SOL    HW1 6811   2.624   2.049   3.311
 2266SOL    HW2 6812   2.542   2.070   3.450
 2267SOL     OW 6813   1.937   2.207   1.895
 2267SOL    HW1 6814   1.845   2.179   1.866
 2267SOL    HW2 6815   1.968   2.284   1.839
 2268SOL     OW 6816   3.302   2.718   3.260
 2268SOL    HW1 6817   3.245   2.770   3.197
 2268SOL    HW2 6818   3.398   2.730   3.236
 2269SOL     OW 6819   1.934   2.028   2.180
 2269SOL    HW1 6820   1.917   2.111   2.126
 2269SOL    HW2 6821   2.024   1.991   2.158
 2270SOL     OW 6822   3.045   3.197   1.981
 2270SOL    HW1 6823   2.946   3.186   1.983
 2270SOL    HW2 6824   3.079   3.212   2.074
 2271SOL     OW 6825   2.475   2.704   3.293
 2271SOL    HW1 6826   2.531   2.785   3.276
 2271SOL    HW2 6827   2.534   2.624   3.296
 2272SOL     OW 6828   3.355   3.629   2.821
 2272SOL    HW1 6829   3.388   3.693   2.752
 2272SOL    HW2 6830   3.421   3.623   2.896
 2273SOL     OW 6831   2.578   2.427   3.570
 2273SOL    HW1 6832   2.597   2.492   3.644
 2273SOL    HW2 6833   2.638   2.347   3.579
 2274SOL     OW 6834   3.312   3.082   3.495
 2274SOL    HW1 6835   3.303   3.072   3.594
 2274SOL    HW2 6836   3.408   3.075   3.469
 2275SOL     OW 6837   2.252   3.603   3.422
 2275SOL    HW1 6838   2.161   3.644   3.420
 2275SOL    HW2 6839   2.245   3.509   3.454
 2276SOL     OW 6840   3.536   2.745   3.116
 2276SOL    HW1 6841   3.509   2.656   3.079
 2276SOL    HW2 6842   3.537   2.813   3.043
 2277SOL     OW 6843   3.087   2.187   2.311
 2277SOL    HW1 6844   3.152   2.113   2.300
 2277SOL    HW2 6845   3.107   2.237   2.395
 2278SOL     OW 6846   2.456   2.607   2.514
 2278SOL    HW1 6847   2.506   2.692   2.495
 2278SOL    HW2 6848   2.368   2.609   2.466
 2279SOL     OW 6849   3.639   2.204   3.504
 2279SOL    HW1 6850   3.622   2.235   3.410
 2279SOL    HW2 6851   3.555   2.167   3.542
 2280SOL     OW 6852   3.592   2.796   3.379
 2280SOL    HW1 6853   3.630   2.887   3.394
 2280SOL    HW2 6854   3.584   2.779   3.280
 2281SOL     OW 6855   2.721   3.236   1.878
 2281SOL    HW1 6856   2.675   3.251   1.966
 2281SOL    HW2 6857   2.765   3.321   1.848
 2282SOL     OW 6858   2.523   3.652   2.815
 2282SOL    HW1 6859   2.477   3.740   2.802
 2282SOL    HW2 6860   2.622   3.664   2.808
 2283SOL     OW 6861   2.721   2.818   2.723
 2283SOL    HW1 6862   2.775   2.749   2.771
 2283SOL    HW2 6863   2.689   2.887   2.789
 2284SOL     OW 6864   2.945   2.846   1.949
 2284SOL    HW1 6865   2.922   2.899   1.867
 2284SOL    HW2 6866   3.026   2.790   1.930
 2285SOL     OW 6867   3.723   3.431   2.713
 2285SOL    HW1 6868   3.652   3.419   2.643
 2285SOL    HW2 6869   3.724   3.352   2.773
 2286SOL     OW 6870   2.083   3.176   3.706
 2286SOL    HW1 6871   2.018   3.103   3.685
 2286SOL    HW2 6872   2.087   3.190   3.804
 2287SOL     OW 6873   1.941   3.102   2.515
 2287SOL    HW1 6874   1.940   3.055   2.603
 2287SOL    HW2 6875   2.023   3.074   2.464
 2288SOL     OW 6876   2.534   3.253   3.486
 2288SOL    HW1 6877   2.456   3.203   3.524
 2288SOL    HW2 6878   2.531   3.348   3.517
 2289SOL     OW 6879   3.686   2.054   3.089
 2289SOL    HW1 6880   3.682   1.964   3.133
 2289SOL    HW2 6881   3.689   2.043   2.990
 2290SOL     OW 6882   3.567   3.349   2.966
 2290SOL    HW1 6883   3.474   3.324   2.939
 2290SOL    HW2 6884   3.593   3.299   3.048
 2291SOL     OW 6885   2.179   2.409   3.142
 2291SOL    HW1 6886   2.217   2.350   3.214
 2291SOL    HW2 6887   2.219   2.383   3.054
 2292SOL     OW 6888   2.674   3.448   2.549
 2292SOL    HW1 6889   2.706   3.458   2.455
 2292SOL    HW2 6890   2.595   3.386   2.551
 2293SOL     OW 6891   3.286   2.076   2.974
 2293SOL    HW1 6892   3.338   2.011   3.029
 2293SOL    HW2 6893   3.237   2.139   3.035
 2294SOL     OW 6894   2.863   1.896   3.016
 2294SOL    HW1 6895   2.800   1.824   2.985
 2294SOL    HW2 6896   2.956   1.860   3.016
 2295SOL     OW 6897   2.632   3.192   2.163
 2295SOL    HW1 6898   2.586   3.105   2.180
 2295SOL    HW2 6899   2.723   3.189   2.204
 2296SOL     OW 6900   2.480   3.429   3.146
 2296SOL    HW1 6901   2.475   3.511   3.203
 2296SOL    HW2 6902   2.569   3.426   3.101
 2297SOL     OW 6903   3.214   1.914   2.030
 2297SOL    HW1 6904   3.249   1.873   1.946
 2297SOL    HW2 6905   3.124   1.876   2.050
 2298SOL     OW 6906   3.162   2.315   2.553
 2298SOL    HW1 6907   3.103   2.395   2.557
 2298SOL    HW2 6908   3.177   2.280   2.646
 2299SOL     OW 6909   3.455   2.083   2.744
 2299SOL    HW1 6910   3.371   2.082   2.798
 2299SOL    HW2 6911   3.457   2.166   2.688
 2300SOL     OW 6912   1.901   2.939   2.162
 2300SOL    HW1 6913   2.000   2.928   2.153
 2300SOL    HW2 6914   1.861   2.853   2.194
 2301SOL     OW 6915   2.737   3.508   2.199
 2301SOL    HW1 6916   2.660   3.473   2.145
 2301SOL    HW2 6917   2.705   3.579   2.261
 2302SOL     OW 6918   2.092   2.490   3.837
 2302SOL    HW1 6919   1.999   2.488   3.874
 2302SOL    HW2 6920   2.093   2.451   3.745
 2303SOL     OW 6921   2.087   2.137   4.720
 2303SOL    HW1 6922   2.122   2.120   4.812
 2303SOL    HW2 6923   1.999   2.092   4.708
 2304SOL     OW 6924   1.881   2.230   4.371
 2304SOL    HW1 6925   1.799   2.273   4.410
 2304SOL    HW2 6926   1.853   2.157   4.308
 2305SOL     OW 6927   3.417   3.373   4.427
 2305SOL    HW1 6928   3.360   3.357   4.508
 2305SOL    HW2 6929   3.358   3.383   4.347
 2306SOL     OW 6930   2.997   2.565   4.441
 2306SOL    HW1 6931   3.054   2.643   4.416
 2306SOL    HW2 6932   2.937   2.591   4.517
 2307SOL     OW 6933   3.617   2.469   3.955
 2307SOL    HW1 6934   3.605   2.456   3.856
 2307SOL    HW2 6935   3.587   2.388   4.004
 2308SOL     OW 6936   2.630   3.006   4.747
 2308SOL    HW1 6937   2.552   3.023   4.807
 2308SOL    HW2 6938   2.664   3.093   4.711
 2309SOL     OW 6939   2.547   2.874   4.389
 2309SOL    HW1 6940   2.616   2.858   4.459
 2309SOL    HW2 6941   2.474   2.931   4.427
 2310SOL     OW 6942   3.465   2.309   4.461
 2310SOL    HW1 6943   3.391   2.355   4.411
 2310SOL    HW2 6944   3.516   2.377   4.514
 2311SOL     OW 6945   2.093   3.575   4.207
 2311SOL    HW1 6946   2.127   3.652   4.261
 2311SOL    HW2 6947   2.137   3.575   4.117
 2312SOL     OW 6948   2.092   3.296   4.262
 2312SOL    HW1 6949   2.066   3.392   4.262
 2312SOL    HW2 6950   2.021   3.242   4.307
 2313SOL     OW 6951   2.102   2.953   4.610
 2313SOL    HW1 6952   2.116   2.869   4.662
 2313SOL    HW2 6953   2.047   3.017   4.665
 2314SOL     OW 6954   2.468   2.826   3.847
 2314SOL    HW1 6955   2.475   2.910   3.793
 2314SOL    HW2 6956   2.514   2.839   3.935
 2315SOL     OW 6957   1.984   2.505   4.287
 2315SOL    HW1 6958   1.939   2.417   4.304
 2315SOL    HW2 6959   1.983   2.559   4.371
 2316SOL     OW 6960   3.704   3.629   4.083
 2316SOL    HW1 6961   3.758   3.600   4.163
 2316SOL    HW2 6962   3.734   3.719   4.054
 2317SOL     OW 6963   1.889   3.458   3.841
 2317SOL    HW1 6964   1.870   3.362   3.862
 2317SOL    HW2 6965   1.856   3.516   3.916
 2318SOL     OW 6966   3.551   2.784   4.336
 2318SOL    HW1 6967   3.646   2.755   4.344
 2318SOL    HW2 6968   3.543   2.849   4.261
 2319SOL     OW 6969   3.503   2.970   4.156
 2319SOL    HW1 6970   3.589   2.972   4.104
 2319SOL    HW2 6971   3.517   3.017   4.244
 2320SOL     OW 6972   2.475   3.227   4.450
 2320SOL    HW1 6973   2.426   3.140   4.459
 2320SOL    HW2 6974   2.452   3.270   4.363
 2321SOL     OW 6975   2.671   1.866   4.226
 2321SOL    HW1 6976   2.711   1.957   4.217
 2321SOL    HW2 6977   2.571   1.874   4.232
 2322SOL     OW 6978   3.387   2.861   3.914
 2322SOL    HW1 6979   3.324   2.785   3.927
 2322SOL    HW2 6980   3.435   2.879   4.000
 2323SOL     OW 6981   3.328   3.279   4.677
 2323SOL    HW1 6982   3.269   3.285   4.757
 2323SOL    HW2 6983   3.313   3.191   4.631
 2324SOL     OW 6984   3.529   3.576   4.296
 2324SOL    HW1 6985   3.488   3.553   4.208
 2324SOL    HW2 6986   3.511   3.502   4.361
 2325SOL     OW 6987   2.460   2.591   3.994
 2325SOL    HW1 6988   2.484   2.660   3.926
 2325SOL    HW2 6989   2.382   2.624   4.048
 2326SOL     OW 6990   3.143   2.207   4.668
 2326SOL    HW1 6991   3.057   2.157   4.655
 2326SOL    HW2 6992   3.205   2.153   4.724
 2327SOL     OW 6993   3.438   3.524   4.031
 2327SOL    HW1 6994   3.527   3.570   4.034
 2327SOL    HW2 6995   3.417   3.500   3.936
 2328SOL     OW 6996   2.903   2.563   4.153
 2328SOL    HW1 6997   2.929   2.559   4.249
 2328SOL    HW2 6998   2.818   2.512   4.139
 2329SOL     OW 6999   1.938   2.673   4.513
 2329SOL    HW1 7000   2.037   2.661   4.522
 2329SOL    HW2 7001   1.914   2.768   4.534
 2330SOL     OW 7002   2.727   2.210   3.919
 2330SOL    HW1 7003   2.786   2.273   3.870
 2330SOL    HW2 7004   2.746   2.116   3.890
 2331SOL     OW 7005   3.224   3.006   4.269
 2331SOL    HW1 7006   3.307   2.977   4.221
 2331SOL    HW2 7007   3.175   3.073   4.213
 2332SOL     OW 7008   2.412   2.058   4.609
 2332SOL    HW1 7009   2.407   2.053   4.709
 2332SOL    HW2 7010   2.414   2.154   4.580
 2333SOL     OW 7011   2.870   3.318   4.201
 2333SOL    HW1 7012   2.824   3.390   4.149
 2333SOL    HW2 7013   2.866   3.338   4.299
 2334SOL     OW 7014   2.213   3.663   4.577
 2334SOL    HW1 7015   2.263   3.577   4.583
 2334SOL    HW2 7016   2.278   3.740   4.574
 2335SOL     OW 7017   3.657   2.928   4.597
 2335SOL    HW1 7018   3.595   2.913   4.521
 2335SOL    HW2 7019   3.605   2.939   4.682
 2336SOL     OW 7020   2.183   2.805   3.966
 2336SOL    HW1 7021   2.265   2.844   3.924
 2336SOL    HW2 7022   2.156   2.723   3.917
 2337SOL     OW 7023   3.320   2.597   4.452
 2337SOL    HW1 7024   3.315   2.532   4.527
 2337SOL    HW2 7025   3.400   2.656   4.465
 2338SOL     OW 7026   2.973   3.638   3.961
 2338SOL    HW1 7027   2.913   3.576   4.011
 2338SOL    HW2 7028   3.004   3.594   3.876
 2339SOL     OW 7029   3.494   3.239   3.805
 2339SOL    HW1 7030   3.462   3.333   3.795
 2339SOL    HW2 7031   3.418   3.176   3.793
 2340SOL     OW 7032   2.326   3.605   4.047
 2340SOL    HW1 7033   2.359   3.644   4.133
 2340SOL    HW2 7034   2.402   3.598   3.982
 2341SOL     OW 7035   3.262   1.969   4.150
 2341SOL    HW1 7036   3.238   1.932   4.060
 2341SOL    HW2 7037   3.361   1.985   4.154
 2342SOL     OW 7038   2.244   2.562   4.204
 2342SOL    HW1 7039   2.289   2.472   4.201
 2342SOL    HW2 7040   2.150   2.551   4.237
 2343SOL     OW 7041   2.476   1.984   3.841
 2343SOL    HW1 7042   2.574   1.962   3.848
 2343SOL    HW2 7043   2.445   1.967   3.748
 2344SOL     OW 7044   2.401   1.926   4.236
 2344SOL    HW1 7045   2.320   1.927   4.294
 2344SOL    HW2 7046   2.404   2.009   4.181
 2345SOL     OW 7047   3.296   3.050   3.765
 2345SOL    HW1 7048   3.328   2.974   3.822
 2345SOL    HW2 7049   3.204   3.077   3.795
 2346SOL     OW 7050   2.159   1.897   3.895
 2346SOL    HW1 7051   2.208   1.981   3.874
 2346SOL    HW2 7052   2.221   1.832   3.940
 2347SOL     OW 7053   2.797   2.098   4.204
 2347SOL    HW1 7054   2.749   2.139   4.126
 2347SOL    HW2 7055   2.896   2.096   4.185
 2348SOL     OW 7056   3.089   3.432   4.517
 2348SOL    HW1 7057   3.110   3.506   4.452
 2348SOL    HW2 7058   3.157   3.432   4.590
 2349SOL     OW 7059   2.321   3.014   4.465
 2349SOL    HW1 7060   2.250   2.987   4.530
 2349SOL    HW2 7061   2.295   2.986   4.372
 2350SOL     OW 7062   3.133   3.659   4.315
 2350SOL    HW1 7063   3.177   3.723   4.251
 2350SOL    HW2 7064   3.083   3.711   4.385
 2351SOL     OW 7065   2.894   2.411   3.740
 2351SOL    HW1 7066   2.853   2.493   3.701
 2351SOL    HW2 7067   2.958   2.437   3.813
 2352SOL     OW 7068   2.728   2.316   4.366
 2352SOL    HW1 7069   2.696   2.388   4.304
 2352SOL    HW2 7070   2.752   2.235   4.313
 2353SOL     OW 7071   2.879   1.901   4.477
 2353SOL    HW1 7072   2.807   1.906   4.408
 2353SOL    HW2 7073   2.855   1.832   4.546
 2354SOL     OW 7074   3.291   3.035   4.591
 2354SOL    HW1 7075   3.236   2.951   4.584
 2354SOL    HW2 7076   3.317   3.064   4.499
 2355SOL     OW 7077   3.719   2.695   4.101
 2355SOL    HW1 7078   3.761   2.631   4.165
 2355SOL    HW2 7079   3.681   2.644   4.023
 2356SOL     OW 7080   2.350   3.247   3.898
 2356SOL    HW1 7081   2.263   3.232   3.945
 2356SOL    HW2 7082   2.333   3.273   3.803
 2357SOL     OW 7083   3.526   3.142   4.381
 2357SOL    HW1 7084   3.625   3.150   4.395
 2357SOL    HW2 7085   3.481   3.226   4.412
 2358SOL     OW 7086   3.252   2.437   3.802
 2358SOL    HW1 7087   3.198   2.416   3.883
 2358SOL    HW2 7088   3.343   2.396   3.811
 2359SOL     OW 7089   2.389   2.118   4.052
 2359SOL    HW1 7090   2.416   2.059   3.977
 2359SOL    HW2 7091   2.389   2.213   4.021
 2360SOL     OW 7092   2.567   2.912   4.092
 2360SOL    HW1 7093   2.553   2.919   4.191
 2360SOL    HW2 7094   2.651   2.861   4.074
 2361SOL     OW 7095   2.229   2.962   4.225
 2361SOL    HW1 7096   2.222   3.045   4.169
 2361SOL    HW2 7097   2.233   2.882   4.165
 2362SOL     OW 7098   2.428   2.399   4.589
 2362SOL    HW1 7099   2.440   2.465   4.515
 2362SOL    HW2 7100   2.474   2.433   4.672
 2363SOL     OW 7101   3.114   3.210   4.112
 2363SOL    HW1 7102   3.164   3.287   4.152
 2363SOL    HW2 7103   3.019   3.212   4.144
 2364SOL     OW 7104   3.444   2.501   4.196
 2364SOL    HW1 7105   3.413   2.562   4.269
 2364SOL    HW2 7106   3.494   2.553   4.127
 2365SOL     OW 7107   3.071   2.387   3.999
 2365SOL    HW1 7108   3.084   2.303   4.053
 2365SOL    HW2 7109   3.042   2.461   4.059
 2366SOL     OW 7110   2.594   2.496   4.788
 2366SOL    HW1 7111   2.653   2.470   4.712
 2366SOL    HW2 7112   2.566   2.592   4.777
 2367SOL     OW 7113   2.169   1.925   4.342
 2367SOL    HW1 7114   2.158   2.019   4.375
 2367SOL    HW2 7115   2.164   1.862   4.419
 2368SOL     OW 7116   3.484   2.229   4.098
 2368SOL    HW1 7117   3.486   2.153   4.162
 2368SOL    HW2 7118   3.436   2.306   4.138
 2369SOL     OW 7119   3.402   2.136   3.849
 2369SOL    HW1 7120   3.341   2.061   3.872
 2369SOL    HW2 7121   3.424   2.188   3.932
 2370SOL     OW 7122   3.165   2.700   3.766
 2370SOL    HW1 7123   3.199   2.607   3.781
 2370SOL    HW2 7124   3.183   2.727   3.671
 2371SOL     OW 7125   2.930   3.195   4.573
 2371SOL    HW1 7126   2.937   3.111   4.518
 2371SOL    HW2 7127   2.992   3.264   4.537
 2372SOL     OW 7128   2.181   2.672   4.673
 2372SOL    HW1 7129   2.274   2.708   4.678
 2372SOL    HW2 7130   2.175   2.587   4.725
 2373SOL     OW 7131   1.870   3.188   3.924
 2373SOL    HW1 7132   1.777   3.209   3.893
 2373SOL    HW2 7133   1.880   3.089   3.937
 2374SOL     OW 7134   1.950   3.663   4.651
 2374SOL    HW1 7135   1.908   3.577   4.624
 2374SOL    HW2 7136   2.044   3.666   4.617
 2375SOL     OW 7137   2.366   3.430   4.634
 2375SOL    HW1 7138   2.432   3.504   4.643
 2375SOL    HW2 7139   2.410   3.351   4.592
 2376SOL     OW 7140   2.677   2.434   4.049
 2376SOL    HW1 7141   2.684   2.345   4.003
 2376SOL    HW2 7142   2.583   2.468   4.041
 2377SOL     OW 7143   2.335   2.362   3.915
 2377SOL    HW1 7144   2.396   2.442   3.919
 2377SOL    HW2 7145   2.240   2.393   3.922
 2378SOL     OW 7146   3.164   2.717   4.033
 2378SOL    HW1 7147   3.078   2.686   4.075
 2378SOL    HW2 7148   3.160   2.703   3.934
 2379SOL     OW 7149   3.621   3.609   4.878
 2379SOL    HW1 7150   3.682   3.639   4.805
 2379SOL    HW2 7151   3.583   3.520   4.856
 2380SOL     OW 7152   3.588   1.997   4.247
 2380SOL    HW1 7153   3.661   1.980   4.180
 2380SOL    HW2 7154   3.557   1.910   4.285
 2381SOL     OW 7155   3.250   3.435   4.201
 2381SOL    HW1 7156   3.317   3.447   4.127
 2381SOL    HW2 7157   3.210   3.524   4.224
 2382SOL     OW 7158   3.142   2.789   4.396
 2382SOL    HW1 7159   3.202   2.708   4.398
 2382SOL    HW2 7160   3.182   2.858   4.336
 2383SOL     OW 7161   2.534   3.478   3.878
 2383SOL    HW1 7162   2.543   3.488   3.779
 2383SOL    HW2 7163   2.494   3.389   3.899
 2384SOL     OW 7164   3.703   2.037   4.687
 2384SOL    HW1 7165   3.742   1.952   4.651
 2384SOL    HW2 7166   3.605   2.039   4.668
 2385SOL     OW 7167   2.125   2.188   4.444
 2385SOL    HW1 7168   2.046   2.239   4.410
 2385SOL    HW2 7169   2.116   2.173   4.542
 2386SOL     OW 7170   3.056   3.474   3.755
 2386SOL    HW1 7171   3.062   3.381   3.792
 2386SOL    HW2 7172   2.997   3.474   3.675
 2387SOL     OW 7173   2.778   2.772   4.015
 2387SOL    HW1 7174   2.841   2.810   3.947
 2387SOL    HW2 7175   2.818   2.689   4.054
 2388SOL     OW 7176   3.366   3.469   3.768
 2388SOL    HW1 7177   3.274   3.506   3.775
 2388SOL    HW2 7178   3.404   3.489   3.678
 2389SOL     OW 7179   2.901   2.960   4.420
 2389SOL    HW1 7180   2.831   2.913   4.474
 2389SOL    HW2 7181   2.960   2.892   4.377
 2390SOL     OW 7182   2.452   3.349   4.215
 2390SOL    HW1 7183   2.494   3.291   4.145
 2390SOL    HW2 7184   2.408   3.428   4.171
 2391SOL     OW 7185   2.117   3.210   4.014
 2391SOL    HW1 7186   2.021   3.211   3.987
 2391SOL    HW2 7187   2.129   3.263   4.098
 2392SOL     OW 7188   1.937   2.207   3.757
 2392SOL    HW1 7189   1.845   2.179   3.728
 2392SOL    HW2 7190   1.968   2.284   3.701
 2393SOL     OW 7191   1.934   2.028   4.042
 2393SOL    HW1 7192   1.917   2.111   3.988
 2393SOL    HW2 7193   2.024   1.991   4.020
 2394SOL     OW 7194   3.045   3.197   3.843
 2394SOL    HW1 7195   2.946   3.186   3.845
 2394SOL    HW2 7196   3.079   3.212   3.936
 2395SOL     OW 7197   3.536   2.745   4.978
 2395SOL    HW1 7198   3.509   2.656   4.941
 2395SOL    HW2 7199   3.537   2.813   4.905
 2396SOL     OW 7200   3.087   2.187   4.173
 2396SOL    HW1 7201   3.152   2.113   4.162
 2396SOL    HW2 7202   3.107   2.237   4.257
 2397SOL     OW 7203   2.456   2.607   4.376
 2397SOL    HW1 7204   2.506   2.692   4.357
 2397SOL    HW2 7205   2.368   2.609   4.328
 2398SOL     OW 7206   2.721   3.236   3.740
 2398SOL    HW1 7207   2.675   3.251   3.828
 2398SOL    HW2 7208   2.765   3.321   3.710
 2399SOL     OW 7209   2.523   3.652   4.677
 2399SOL    HW1 7210   2.477   3.740   4.664
 2399SOL    HW2 7211   2.622   3.664   4.670
 2400SOL     OW 7212   2.721   2.818   4.585
 2400SOL    HW1 7213   2.775   2.749   4.633
 2400SOL    HW2 7214   2.689   2.887   4.651
 2401SOL     OW 7215   2.945   2.846   3.811
 2401SOL    HW1 7216   2.922   2.899   3.729
 2401SOL    HW2 7217   3.026   2.790   3.792
 2402SOL     OW 7218   3.723   3.431   4.575
 2402SOL    HW1 7219   3.652   3.419   4.505
 2402SOL    HW2 7220   3.724   3.352   4.635
 2403SOL     OW 7221   1.941   3.102   4.377
 2403SOL    HW1 7222   1.940   3.055   4.465
 2403SOL    HW2 7223   2.023   3.074   4.326
 2404SOL     OW 7224   2.290   2.286   4.244
 2404SOL    HW1 7225   2.320   2.214   4.182
 2404SOL    HW2 7226   2.251   2.246   4.327
 2405SOL     OW 7227   2.674   3.448   4.411
 2405SOL    HW1 7228   2.706   3.458   4.317
 2405SOL    HW2 7229   2.595   3.386   4.413
 2406SOL     OW 7230   2.632   3.192   4.025
 2406SOL    HW1 7231   2.586   3.105   4.042
 2406SOL    HW2 7232   2.723   3.189   4.066
 2407SOL     OW 7233   3.214   1.914   3.892
 2407SOL    HW1 7234   3.249   1.873   3.808
 2407SOL    HW2 7235   3.124   1.876   3.912
 2408SOL     OW 7236   3.162   2.315   4.415
 2408SOL    HW1 7237   3.103   2.395   4.419
 2408SOL    HW2 7238   3.177   2.280   4.508
 2409SOL     OW 7239   3.455   2.083   4.606
 2409SOL    HW1 7240   3.371   2.082   4.660
 2409SOL    HW2 7241   3.457   2.166   4.550
 2410SOL     OW 7242   1.901   2.939   4.024
 2410SOL    HW1 7243   2.000   2.928   4.015
 2410SOL    HW2 7244   1.861   2.853   4.056
 2411SOL     OW 7245   2.737   3.508   4.061
 2411SOL    HW1 7246   2.660   3.473   4.007
 2411SOL    HW2 7247   2.705   3.579   4.123
 2412SOL     OW 7248   2.092   4.352   0.113
 2412SOL    HW1 7249   1.999   4.350   0.150
 2412SOL    HW2 7250   2.093   4.313   0.021
 2413SOL     OW 7251   2.087   3.999   0.996
 2413SOL    HW1 7252   2.122   3.982   1.088
 2413SOL    HW2 7253   1.999   3.954   0.984
 2414SOL     OW 7254   1.881   4.092   0.647
 2414SOL    HW1 7255   1.799   4.135   0.686
 2414SOL    HW2 7256   1.853   4.019   0.584
 2415SOL     OW 7257   2.997   4.427   0.717
 2415SOL    HW1 7258   3.054   4.505   0.692
 2415SOL    HW2 7259   2.937   4.453   0.793
 2416SOL     OW 7260   3.617   4.331   0.231
 2416SOL    HW1 7261   3.605   4.318   0.132
 2416SOL    HW2 7262   3.587   4.250   0.280
 2417SOL     OW 7263   2.630   4.868   1.023
 2417SOL    HW1 7264   2.552   4.885   1.083
 2417SOL    HW2 7265   2.664   4.955   0.987
 2418SOL     OW 7266   2.712   4.522   1.823
 2418SOL    HW1 7267   2.708   4.598   1.888
 2418SOL    HW2 7268   2.734   4.558   1.732
 2419SOL     OW 7269   2.547   4.736   0.665
 2419SOL    HW1 7270   2.616   4.720   0.735
 2419SOL    HW2 7271   2.474   4.793   0.703
 2420SOL     OW 7272   2.300   4.116   1.499
 2420SOL    HW1 7273   2.382   4.060   1.508
 2420SOL    HW2 7274   2.219   4.058   1.503
 2421SOL     OW 7275   3.465   4.171   0.737
 2421SOL    HW1 7276   3.391   4.217   0.687
 2421SOL    HW2 7277   3.516   4.239   0.790
 2422SOL     OW 7278   3.456   3.838   1.480
 2422SOL    HW1 7279   3.438   3.905   1.408
 2422SOL    HW2 7280   3.453   3.884   1.569
 2423SOL     OW 7281   1.984   4.367   0.563
 2423SOL    HW1 7282   1.939   4.279   0.580
 2423SOL    HW2 7283   1.983   4.421   0.647
 2424SOL     OW 7284   1.975   4.461   1.597
 2424SOL    HW1 7285   2.063   4.448   1.642
 2424SOL    HW2 7286   1.962   4.558   1.575
 2425SOL     OW 7287   2.671   3.728   0.502
 2425SOL    HW1 7288   2.711   3.819   0.493
 2425SOL    HW2 7289   2.571   3.736   0.508
 2426SOL     OW 7290   2.059   4.700   1.264
 2426SOL    HW1 7291   2.148   4.655   1.250
 2426SOL    HW2 7292   1.986   4.635   1.245
 2427SOL     OW 7293   3.387   4.723   0.190
 2427SOL    HW1 7294   3.324   4.647   0.203
 2427SOL    HW2 7295   3.435   4.741   0.276
 2428SOL     OW 7296   2.179   3.975   1.801
 2428SOL    HW1 7297   2.250   4.046   1.807
 2428SOL    HW2 7298   2.091   4.014   1.829
 2429SOL     OW 7299   2.460   4.453   0.270
 2429SOL    HW1 7300   2.484   4.522   0.202
 2429SOL    HW2 7301   2.382   4.486   0.324
 2430SOL     OW 7302   3.143   4.069   0.944
 2430SOL    HW1 7303   3.057   4.019   0.931
 2430SOL    HW2 7304   3.205   4.015   1.000
 2431SOL     OW 7305   2.669   4.329   1.465
 2431SOL    HW1 7306   2.622   4.326   1.554
 2431SOL    HW2 7307   2.618   4.274   1.399
 2432SOL     OW 7308   3.256   4.193   1.674
 2432SOL    HW1 7309   3.236   4.236   1.762
 2432SOL    HW2 7310   3.334   4.131   1.683
 2433SOL     OW 7311   2.835   4.614   1.572
 2433SOL    HW1 7312   2.881   4.530   1.543
 2433SOL    HW2 7313   2.779   4.648   1.497
 2434SOL     OW 7314   2.853   4.134   1.242
 2434SOL    HW1 7315   2.776   4.168   1.296
 2434SOL    HW2 7316   2.819   4.083   1.163
 2435SOL     OW 7317   2.903   4.425   0.429
 2435SOL    HW1 7318   2.929   4.421   0.525
 2435SOL    HW2 7319   2.818   4.374   0.415
 2436SOL     OW 7320   1.938   4.535   0.789
 2436SOL    HW1 7321   2.037   4.523   0.798
 2436SOL    HW2 7322   1.914   4.630   0.810
 2437SOL     OW 7323   2.727   4.072   0.195
 2437SOL    HW1 7324   2.786   4.135   0.146
 2437SOL    HW2 7325   2.746   3.978   0.166
 2438SOL     OW 7326   3.581   4.309   1.831
 2438SOL    HW1 7327   3.555   4.398   1.795
 2438SOL    HW2 7328   3.579   4.241   1.758
 2439SOL     OW 7329   2.412   3.920   0.885
 2439SOL    HW1 7330   2.407   3.915   0.985
 2439SOL    HW2 7331   2.414   4.016   0.856
 2440SOL     OW 7332   3.320   4.459   0.728
 2440SOL    HW1 7333   3.315   4.394   0.803
 2440SOL    HW2 7334   3.400   4.518   0.741
 2441SOL     OW 7335   2.064   4.009   1.498
 2441SOL    HW1 7336   1.984   4.069   1.485
 2441SOL    HW2 7337   2.054   3.960   1.584
 2442SOL     OW 7338   3.262   3.831   0.426
 2442SOL    HW1 7339   3.238   3.794   0.336
 2442SOL    HW2 7340   3.361   3.847   0.430
 2443SOL     OW 7341   2.244   4.424   0.480
 2443SOL    HW1 7342   2.289   4.334   0.477
 2443SOL    HW2 7343   2.150   4.413   0.513
 2444SOL     OW 7344   3.409   3.946   1.729
 2444SOL    HW1 7345   3.404   3.983   1.821
 2444SOL    HW2 7346   3.337   3.877   1.717
 2445SOL     OW 7347   2.643   3.988   1.749
 2445SOL    HW1 7348   2.710   3.927   1.792
 2445SOL    HW2 7349   2.570   4.007   1.814
 2446SOL     OW 7350   3.213   4.314   1.433
 2446SOL    HW1 7351   3.241   4.271   1.518
 2446SOL    HW2 7352   3.238   4.410   1.434
 2447SOL     OW 7353   2.784   4.227   0.899
 2447SOL    HW1 7354   2.759   4.218   0.803
 2447SOL    HW2 7355   2.832   4.145   0.930
 2448SOL     OW 7356   2.401   3.788   0.512
 2448SOL    HW1 7357   2.320   3.789   0.570
 2448SOL    HW2 7358   2.404   3.871   0.457
 2449SOL     OW 7359   2.159   3.759   0.171
 2449SOL    HW1 7360   2.208   3.843   0.150
 2449SOL    HW2 7361   2.221   3.694   0.216
 2450SOL     OW 7362   2.797   3.960   0.480
 2450SOL    HW1 7363   2.749   4.001   0.402
 2450SOL    HW2 7364   2.896   3.958   0.461
 2451SOL     OW 7365   2.938   4.407   1.464
 2451SOL    HW1 7366   2.858   4.346   1.467
 2451SOL    HW2 7367   3.019   4.354   1.440
 2452SOL     OW 7368   2.894   4.273   0.016
 2452SOL    HW1 7369   2.853   4.355  -0.023
 2452SOL    HW2 7370   2.958   4.299   0.089
 2453SOL     OW 7371   1.940   4.280   1.386
 2453SOL    HW1 7372   2.032   4.279   1.345
 2453SOL    HW2 7373   1.934   4.354   1.453
 2454SOL     OW 7374   2.423   3.946   1.147
 2454SOL    HW1 7375   2.461   3.862   1.184
 2454SOL    HW2 7376   2.335   3.965   1.191
 2455SOL     OW 7377   2.728   4.178   0.642
 2455SOL    HW1 7378   2.696   4.250   0.580
 2455SOL    HW2 7379   2.752   4.097   0.589
 2456SOL     OW 7380   2.879   3.763   0.753
 2456SOL    HW1 7381   2.807   3.768   0.684
 2456SOL    HW2 7382   2.855   3.694   0.822
 2457SOL     OW 7383   3.328   4.314   0.992
 2457SOL    HW1 7384   3.298   4.219   0.999
 2457SOL    HW2 7385   3.401   4.330   1.058
 2458SOL     OW 7386   3.719   4.557   0.377
 2458SOL    HW1 7387   3.761   4.493   0.441
 2458SOL    HW2 7388   3.681   4.506   0.299
 2459SOL     OW 7389   3.252   4.299   0.078
 2459SOL    HW1 7390   3.198   4.278   0.159
 2459SOL    HW2 7391   3.343   4.258   0.087
 2460SOL     OW 7392   2.389   3.980   0.328
 2460SOL    HW1 7393   2.416   3.921   0.253
 2460SOL    HW2 7394   2.389   4.075   0.297
 2461SOL     OW 7395   3.500   4.823   1.079
 2461SOL    HW1 7396   3.505   4.904   1.138
 2461SOL    HW2 7397   3.414   4.825   1.028
 2462SOL     OW 7398   2.777   3.813   1.402
 2462SOL    HW1 7399   2.802   3.793   1.307
 2462SOL    HW2 7400   2.849   3.869   1.444
 2463SOL     OW 7401   2.272   4.537   1.251
 2463SOL    HW1 7402   2.358   4.549   1.301
 2463SOL    HW2 7403   2.230   4.450   1.278
 2464SOL     OW 7404   3.136   4.110   1.262
 2464SOL    HW1 7405   3.157   4.184   1.326
 2464SOL    HW2 7406   3.047   4.127   1.219
 2465SOL     OW 7407   2.428   4.261   0.865
 2465SOL    HW1 7408   2.440   4.327   0.791
 2465SOL    HW2 7409   2.474   4.295   0.948
 2466SOL     OW 7410   3.444   4.363   0.472
 2466SOL    HW1 7411   3.413   4.424   0.545
 2466SOL    HW2 7412   3.494   4.415   0.403
 2467SOL     OW 7413   2.264   4.475   1.598
 2467SOL    HW1 7414   2.332   4.530   1.551
 2467SOL    HW2 7415   2.304   4.387   1.625
 2468SOL     OW 7416   3.449   4.503   1.670
 2468SOL    HW1 7417   3.357   4.541   1.665
 2468SOL    HW2 7418   3.509   4.550   1.605
 2469SOL     OW 7419   2.875   3.829   1.770
 2469SOL    HW1 7420   2.881   3.914   1.718
 2469SOL    HW2 7421   2.907   3.753   1.713
 2470SOL     OW 7422   2.366   3.774   1.740
 2470SOL    HW1 7423   2.324   3.717   1.670
 2470SOL    HW2 7424   2.300   3.843   1.772
 2471SOL     OW 7425   2.435   4.594   1.029
 2471SOL    HW1 7426   2.479   4.683   1.020
 2471SOL    HW2 7427   2.372   4.594   1.106
 2472SOL     OW 7428   3.222   4.586   1.045
 2472SOL    HW1 7429   3.147   4.586   0.979
 2472SOL    HW2 7430   3.259   4.494   1.054
 2473SOL     OW 7431   3.071   4.249   0.275
 2473SOL    HW1 7432   3.084   4.165   0.329
 2473SOL    HW2 7433   3.042   4.323   0.335
 2474SOL     OW 7434   2.169   3.937   1.231
 2474SOL    HW1 7435   2.146   3.974   1.321
 2474SOL    HW2 7436   2.139   3.842   1.225
 2475SOL     OW 7437   2.594   4.358   1.064
 2475SOL    HW1 7438   2.653   4.332   0.988
 2475SOL    HW2 7439   2.566   4.454   1.053
 2476SOL     OW 7440   3.590   4.659   1.854
 2476SOL    HW1 7441   3.544   4.652   1.765
 2476SOL    HW2 7442   3.528   4.703   1.920
 2477SOL     OW 7443   2.169   3.787   0.618
 2477SOL    HW1 7444   2.158   3.881   0.651
 2477SOL    HW2 7445   2.164   3.724   0.695
 2478SOL     OW 7446   3.484   4.091   0.374
 2478SOL    HW1 7447   3.486   4.015   0.438
 2478SOL    HW2 7448   3.436   4.168   0.414
 2479SOL     OW 7449   2.885   4.490   0.966
 2479SOL    HW1 7450   2.900   4.511   1.062
 2479SOL    HW2 7451   2.855   4.395   0.957
 2480SOL     OW 7452   2.212   4.622   1.804
 2480SOL    HW1 7453   2.288   4.666   1.852
 2480SOL    HW2 7454   2.247   4.575   1.722
 2481SOL     OW 7455   3.402   3.998   0.125
 2481SOL    HW1 7456   3.341   3.923   0.148
 2481SOL    HW2 7457   3.424   4.050   0.208
 2482SOL     OW 7458   3.165   4.562   0.042
 2482SOL    HW1 7459   3.199   4.469   0.057
 2482SOL    HW2 7460   3.183   4.589  -0.053
 2483SOL     OW 7461   2.181   4.534   0.949
 2483SOL    HW1 7462   2.274   4.570   0.954
 2483SOL    HW2 7463   2.175   4.449   1.001
 2484SOL     OW 7464   2.201   4.233   1.006
 2484SOL    HW1 7465   2.149   4.150   0.989
 2484SOL    HW2 7466   2.278   4.238   0.942
 2485SOL     OW 7467   3.000   4.104   1.678
 2485SOL    HW1 7468   2.955   4.167   1.742
 2485SOL    HW2 7469   3.093   4.135   1.661
 2486SOL     OW 7470   3.022   3.931   1.477
 2486SOL    HW1 7471   3.022   3.995   1.554
 2486SOL    HW2 7472   3.050   3.979   1.394
 2487SOL     OW 7473   2.864   4.520   1.238
 2487SOL    HW1 7474   2.905   4.488   1.324
 2487SOL    HW2 7475   2.768   4.493   1.235
 2488SOL     OW 7476   1.902   4.268   1.114
 2488SOL    HW1 7477   1.987   4.235   1.073
 2488SOL    HW2 7478   1.915   4.283   1.212
 2489SOL     OW 7479   2.051   4.244   1.722
 2489SOL    HW1 7480   2.110   4.204   1.652
 2489SOL    HW2 7481   1.993   4.315   1.681
 2490SOL     OW 7482   3.231   4.674   1.660
 2490SOL    HW1 7483   3.270   4.763   1.680
 2490SOL    HW2 7484   3.241   4.654   1.563
 2491SOL     OW 7485   2.677   4.296   0.325
 2491SOL    HW1 7486   2.684   4.207   0.279
 2491SOL    HW2 7487   2.583   4.330   0.317
 2492SOL     OW 7488   3.519   4.328   1.206
 2492SOL    HW1 7489   3.481   4.259   1.268
 2492SOL    HW2 7490   3.601   4.292   1.162
 2493SOL     OW 7491   2.533   4.188   1.269
 2493SOL    HW1 7492   2.499   4.099   1.239
 2493SOL    HW2 7493   2.559   4.242   1.189
 2494SOL     OW 7494   2.335   4.224   0.191
 2494SOL    HW1 7495   2.396   4.304   0.195
 2494SOL    HW2 7496   2.240   4.255   0.198
 2495SOL     OW 7497   3.209   4.783   1.234
 2495SOL    HW1 7498   3.233   4.720   1.160
 2495SOL    HW2 7499   3.119   4.823   1.216
 2496SOL     OW 7500   3.164   4.579   0.309
 2496SOL    HW1 7501   3.078   4.548   0.351
 2496SOL    HW2 7502   3.160   4.565   0.210
 2497SOL     OW 7503   2.765   3.810   0.133
 2497SOL    HW1 7504   2.816   3.811   0.047
 2497SOL    HW2 7505   2.821   3.768   0.204
 2498SOL     OW 7506   3.588   3.859   0.523
 2498SOL    HW1 7507   3.661   3.842   0.456
 2498SOL    HW2 7508   3.557   3.772   0.561
 2499SOL     OW 7509   3.142   4.651   0.672
 2499SOL    HW1 7510   3.202   4.570   0.674
 2499SOL    HW2 7511   3.182   4.720   0.612
 2500SOL     OW 7512   3.703   3.899   0.963
 2500SOL    HW1 7513   3.742   3.814   0.927
 2500SOL    HW2 7514   3.605   3.901   0.944
 2501SOL     OW 7515   2.125   4.050   0.720
 2501SOL    HW1 7516   2.046   4.101   0.686
 2501SOL    HW2 7517   2.116   4.035   0.818
 2502SOL     OW 7518   2.876   3.960   0.971
 2502SOL    HW1 7519   2.868   3.924   0.878
 2502SOL    HW2 7520   2.874   3.884   1.036
 2503SOL     OW 7521   3.571   4.109   1.381
 2503SOL    HW1 7522   3.644   4.178   1.385
 2503SOL    HW2 7523   3.599   4.034   1.322
 2504SOL     OW 7524   1.967   4.737   1.726
 2504SOL    HW1 7525   1.890   4.704   1.780
 2504SOL    HW2 7526   2.052   4.707   1.768
 2505SOL     OW 7527   2.534   3.927   1.489
 2505SOL    HW1 7528   2.624   3.911   1.449
 2505SOL    HW2 7529   2.542   3.932   1.588
 2506SOL     OW 7530   3.302   4.580   1.398
 2506SOL    HW1 7531   3.245   4.632   1.335
 2506SOL    HW2 7532   3.398   4.592   1.374
 2507SOL     OW 7533   1.934   3.890   0.318
 2507SOL    HW1 7534   1.917   3.973   0.264
 2507SOL    HW2 7535   2.024   3.853   0.296
 2508SOL     OW 7536   2.475   4.566   1.431
 2508SOL    HW1 7537   2.531   4.647   1.414
 2508SOL    HW2 7538   2.534   4.486   1.434
 2509SOL     OW 7539   2.578   4.289   1.708
 2509SOL    HW1 7540   2.597   4.354   1.782
 2509SOL    HW2 7541   2.638   4.209   1.717
 2510SOL     OW 7542   3.536   4.607   1.254
 2510SOL    HW1 7543   3.509   4.518   1.217
 2510SOL    HW2 7544   3.537   4.675   1.181
 2511SOL     OW 7545   3.087   4.049   0.449
 2511SOL    HW1 7546   3.152   3.975   0.438
 2511SOL    HW2 7547   3.107   4.099   0.533
 2512SOL     OW 7548   2.456   4.469   0.652
 2512SOL    HW1 7549   2.506   4.554   0.633
 2512SOL    HW2 7550   2.368   4.471   0.604
 2513SOL     OW 7551   3.639   4.066   1.642
 2513SOL    HW1 7552   3.622   4.097   1.548
 2513SOL    HW2 7553   3.555   4.029   1.680
 2514SOL     OW 7554   3.592   4.658   1.517
 2514SOL    HW1 7555   3.630   4.749   1.532
 2514SOL    HW2 7556   3.584   4.641   1.418
 2515SOL     OW 7557   3.686   3.916   1.227
 2515SOL    HW1 7558   3.682   3.826   1.271
 2515SOL    HW2 7559   3.689   3.905   1.128
 2516SOL     OW 7560   2.290   4.148   0.520
 2516SOL    HW1 7561   2.320   4.076   0.458
 2516SOL    HW2 7562   2.251   4.108   0.603
 2517SOL     OW 7563   2.179   4.271   1.280
 2517SOL    HW1 7564   2.217   4.212   1.352
 2517SOL    HW2 7565   2.219   4.245   1.192
 2518SOL     OW 7566   3.286   3.938   1.112
 2518SOL    HW1 7567   3.338   3.873   1.167
 2518SOL    HW2 7568   3.237   4.001   1.173
 2519SOL     OW 7569   2.863   3.758   1.154
 2519SOL    HW1 7570   2.800   3.686   1.123
 2519SOL    HW2 7571   2.956   3.722   1.154
 2520SOL     OW 7572   3.214   3.776   0.168
 2520SOL    HW1 7573   3.249   3.735   0.084
 2520SOL    HW2 7574   3.124   3.738   0.188
 2521SOL     OW 7575   3.162   4.177   0.691
 2521SOL    HW1 7576   3.103   4.257   0.695
 2521SOL    HW2 7577   3.177   4.142   0.784
 2522SOL     OW 7578   3.455   3.945   0.882
 2522SOL    HW1 7579   3.371   3.944   0.936
 2522SOL    HW2 7580   3.457   4.028   0.826
 2523SOL     OW 7581   2.092   4.352   1.975
 2523SOL    HW1 7582   1.999   4.350   2.012
 2523SOL    HW2 7583   2.093   4.313   1.883
 2524SOL     OW 7584   2.087   3.999   2.858
 2524SOL    HW1 7585   2.122   3.982   2.950
 2524SOL    HW2 7586   1.999   3.954   2.846
 2525SOL     OW 7587   1.881   4.092   2.509
 2525SOL    HW1 7588   1.799   4.135   2.548
 2525SOL    HW2 7589   1.853   4.019   2.446
 2526SOL     OW 7590   2.997   4.427   2.579
 2526SOL    HW1 7591   3.054   4.505   2.554
 2526SOL    HW2 7592   2.937   4.453   2.655
 2527SOL     OW 7593   3.617   4.331   2.093
 2527SOL    HW1 7594   3.605   4.318   1.994
 2527SOL    HW2 7595   3.587   4.250   2.142
 2528SOL     OW 7596   2.630   4.868   2.885
 2528SOL    HW1 7597   2.552   4.885   2.945
 2528SOL    HW2 7598   2.664   4.955   2.849
 2529SOL     OW 7599   2.712   4.522   3.685
 2529SOL    HW1 7600   2.708   4.598   3.750
 2529SOL    HW2 7601   2.734   4.558   3.594
 2530SOL     OW 7602   2.547   4.736   2.527
 2530SOL    HW1 7603   2.616   4.720   2.597
 2530SOL    HW2 7604   2.474   4.793   2.565
 2531SOL     OW 7605   2.300   4.116   3.361
 2531SOL    HW1 7606   2.382   4.060   3.370
 2531SOL    HW2 7607   2.219   4.058   3.365
 2532SOL     OW 7608   3.465   4.171   2.599
 2532SOL    HW1 7609   3.391   4.217   2.549
 2532SOL    HW2 7610   3.516   4.239   2.652
 2533SOL     OW 7611   3.456   3.838   3.342
 2533SOL    HW1 7612   3.438   3.905   3.270
 2533SOL    HW2 7613   3.453   3.884   3.431
 2534SOL     OW 7614   1.984   4.367   2.425
 2534SOL    HW1 7615   1.939   4.279   2.442
 2534SOL    HW2 7616   1.983   4.421   2.509
 2535SOL     OW 7617   1.975   4.461   3.459
 2535SOL    HW1 7618   2.063   4.448   3.504
 2535SOL    HW2 7619   1.962   4.558   3.437
 2536SOL     OW 7620   2.671   3.728   2.364
 2536SOL    HW1 7621   2.711   3.819   2.355
 2536SOL    HW2 7622   2.571   3.736   2.370
 2537SOL     OW 7623   2.059   4.700   3.126
 2537SOL    HW1 7624   2.148   4.655   3.112
 2537SOL    HW2 7625   1.986   4.635   3.107
 2538SOL     OW 7626   3.387   4.723   2.052
 2538SOL    HW1 7627   3.324   4.647   2.065
 2538SOL    HW2 7628   3.435   4.741   2.138
 2539SOL     OW 7629   2.179   3.975   3.663
 2539SOL    HW1 7630   2.250   4.046   3.669
 2539SOL    HW2 7631   2.091   4.014   3.691
 2540SOL     OW 7632   2.460   4.453   2.132
 2540SOL    HW1 7633   2.484   4.522   2.064
 2540SOL    HW2 7634   2.382   4.486   2.186
 2541SOL     OW 7635   3.143   4.069   2.806
 2541SOL    HW1 7636   3.057   4.019   2.793
 2541SOL    HW2 7637   3.205   4.015   2.862
 2542SOL     OW 7638   2.669   4.329   3.327
 2542SOL    HW1 7639   2.622   4.326   3.416
 2542SOL    HW2 7640   2.618   4.274   3.261
 2543SOL     OW 7641   3.256   4.193   3.536
 2543SOL    HW1 7642   3.236   4.236   3.624
 2543SOL    HW2 7643   3.334   4.131   3.545
 2544SOL     OW 7644   2.835   4.614   3.434
 2544SOL    HW1 7645   2.881   4.530   3.405
 2544SOL    HW2 7646   2.779   4.648   3.359
 2545SOL     OW 7647   2.853   4.134   3.104
 2545SOL    HW1 7648   2.776   4.168   3.158
 2545SOL    HW2 7649   2.819   4.083   3.025
 2546SOL     OW 7650   2.903   4.425   2.291
 2546SOL    HW1 7651   2.929   4.421   2.387
 2546SOL    HW2 7652   2.818   4.374   2.277
 2547SOL     OW 7653   1.938   4.535   2.651
 2547SOL    HW1 7654   2.037   4.523   2.660
 2547SOL    HW2 7655   1.914   4.630   2.672
 2548SOL     OW 7656   2.727   4.072   2.057
 2548SOL    HW1 7657   2.786   4.135   2.008
 2548SOL    HW2 7658   2.746   3.978   2.028
 2549SOL     OW 7659   3.581   4.309   3.693
 2549SOL    HW1 7660   3.555   4.398   3.657
 2549SOL    HW2 7661   3.579   4.241   3.620
 2550SOL     OW 7662   2.412   3.920   2.747
 2550SOL    HW1 7663   2.407   3.915   2.847
 2550SOL    HW2 7664   2.414   4.016   2.718
 2551SOL     OW 7665   3.320   4.459   2.590
 2551SOL    HW1 7666   3.315   4.394   2.665
 2551SOL    HW2 7667   3.400   4.518   2.603
 2552SOL     OW 7668   2.064   4.009   3.360
 2552SOL    HW1 7669   1.984   4.069   3.347
 2552SOL    HW2 7670   2.054   3.960   3.446
 2553SOL     OW 7671   3.262   3.831   2.288
 2553SOL    HW1 7672   3.238   3.794   2.198
 2553SOL    HW2 7673   3.361   3.847   2.292
 2554SOL     OW 7674   2.244   4.424   2.342
 2554SOL    HW1 7675   2.289   4.334   2.339
 2554SOL    HW2 7676   2.150   4.413   2.375
 2555SOL     OW 7677   3.409   3.946   3.591
 2555SOL    HW1 7678   3.404   3.983   3.683
 2555SOL    HW2 7679   3.337   3.877   3.579
 2556SOL     OW 7680   2.476   3.846   1.979
 2556SOL    HW1 7681   2.574   3.824   1.986
 2556SOL    HW2 7682   2.445   3.829   1.886
 2557SOL     OW 7683   2.643   3.988   3.611
 2557SOL    HW1 7684   2.710   3.927   3.654
 2557SOL    HW2 7685   2.570   4.007   3.676
 2558SOL     OW 7686   3.213   4.314   3.295
 2558SOL    HW1 7687   3.241   4.271   3.380
 2558SOL    HW2 7688   3.238   4.410   3.296
 2559SOL     OW 7689   2.784   4.227   2.761
 2559SOL    HW1 7690   2.759   4.218   2.665
 2559SOL    HW2 7691   2.832   4.145   2.792
 2560SOL     OW 7692   2.401   3.788   2.374
 2560SOL    HW1 7693   2.320   3.789   2.432
 2560SOL    HW2 7694   2.404   3.871   2.319
 2561SOL     OW 7695   2.159   3.759   2.033
 2561SOL    HW1 7696   2.208   3.843   2.012
 2561SOL    HW2 7697   2.221   3.694   2.078
 2562SOL     OW 7698   2.797   3.960   2.342
 2562SOL    HW1 7699   2.749   4.001   2.264
 2562SOL    HW2 7700   2.896   3.958   2.323
 2563SOL     OW 7701   2.938   4.407   3.326
 2563SOL    HW1 7702   2.858   4.346   3.329
 2563SOL    HW2 7703   3.019   4.354   3.302
 2564SOL     OW 7704   2.894   4.273   1.878
 2564SOL    HW1 7705   2.853   4.355   1.839
 2564SOL    HW2 7706   2.958   4.299   1.951
 2565SOL     OW 7707   1.940   4.280   3.248
 2565SOL    HW1 7708   2.032   4.279   3.207
 2565SOL    HW2 7709   1.934   4.354   3.315
 2566SOL     OW 7710   2.423   3.946   3.009
 2566SOL    HW1 7711   2.461   3.862   3.046
 2566SOL    HW2 7712   2.335   3.965   3.053
 2567SOL     OW 7713   2.728   4.178   2.504
 2567SOL    HW1 7714   2.696   4.250   2.442
 2567SOL    HW2 7715   2.752   4.097   2.451
 2568SOL     OW 7716   2.879   3.763   2.615
 2568SOL    HW1 7717   2.807   3.768   2.546
 2568SOL    HW2 7718   2.855   3.694   2.684
 2569SOL     OW 7719   3.328   4.314   2.854
 2569SOL    HW1 7720   3.298   4.219   2.861
 2569SOL    HW2 7721   3.401   4.330   2.920
 2570SOL     OW 7722   3.719   4.557   2.239
 2570SOL    HW1 7723   3.761   4.493   2.303
 2570SOL    HW2 7724   3.681   4.506   2.161
 2571SOL     OW 7725   3.252   4.299   1.940
 2571SOL    HW1 7726   3.198   4.278   2.021
 2571SOL    HW2 7727   3.343   4.258   1.949
 2572SOL     OW 7728   2.389   3.980   2.190
 2572SOL    HW1 7729   2.416   3.921   2.115
 2572SOL    HW2 7730   2.389   4.075   2.159
 2573SOL     OW 7731   3.500   4.823   2.941
 2573SOL    HW1 7732   3.505   4.904   3.000
 2573SOL    HW2 7733   3.414   4.825   2.890
 2574SOL     OW 7734   2.777   3.813   3.264
 2574SOL    HW1 7735   2.802   3.793   3.169
 2574SOL    HW2 7736   2.849   3.869   3.306
 2575SOL     OW 7737   2.272   4.537   3.113
 2575SOL    HW1 7738   2.358   4.549   3.163
 2575SOL    HW2 7739   2.230   4.450   3.140
 2576SOL     OW 7740   3.136   4.110   3.124
 2576SOL    HW1 7741   3.157   4.184   3.188
 2576SOL    HW2 7742   3.047   4.127   3.081
 2577SOL     OW 7743   2.428   4.261   2.727
 2577SOL    HW1 7744   2.440   4.327   2.653
 2577SOL    HW2 7745   2.474   4.295   2.810
 2578SOL     OW 7746   3.444   4.363   2.334
 2578SOL    HW1 7747   3.413   4.424   2.407
 2578SOL    HW2 7748   3.494   4.415   2.265
 2579SOL     OW 7749   2.264   4.475   3.460
 2579SOL    HW1 7750   2.332   4.530   3.413
 2579SOL    HW2 7751   2.304   4.387   3.487
 2580SOL     OW 7752   3.449   4.503   3.532
 2580SOL    HW1 7753   3.357   4.541   3.527
 2580SOL    HW2 7754   3.509   4.550   3.467
 2581SOL     OW 7755   2.875   3.829   3.632
 2581SOL    HW1 7756   2.881   3.914   3.580
 2581SOL    HW2 7757   2.907   3.753   3.575
 2582SOL     OW 7758   2.366   3.774   3.602
 2582SOL    HW1 7759   2.324   3.717   3.532
 2582SOL    HW2 7760   2.300   3.843   3.634
 2583SOL     OW 7761   2.435   4.594   2.891
 2583SOL    HW1 7762   2.479   4.683   2.882
 2583SOL    HW2 7763   2.372   4.594   2.968
 2584SOL     OW 7764   3.222   4.586   2.907
 2584SOL    HW1 7765   3.147   4.586   2.841
 2584SOL    HW2 7766   3.259   4.494   2.916
 2585SOL     OW 7767   3.071   4.249   2.137
 2585SOL    HW1 7768   3.084   4.165   2.191
 2585SOL    HW2 7769   3.042   4.323   2.197
 2586SOL     OW 7770   2.169   3.937   3.093
 2586SOL    HW1 7771   2.146   3.974   3.183
 2586SOL    HW2 7772   2.139   3.842   3.087
 2587SOL     OW 7773   2.594   4.358   2.926
 2587SOL    HW1 7774   2.653   4.332   2.850
 2587SOL    HW2 7775   2.566   4.454   2.915
 2588SOL     OW 7776   3.590   4.659   3.716
 2588SOL    HW1 7777   3.544   4.652   3.627
 2588SOL    HW2 7778   3.528   4.703   3.782
 2589SOL     OW 7779   2.169   3.787   2.480
 2589SOL    HW1 7780   2.158   3.881   2.513
 2589SOL    HW2 7781   2.164   3.724   2.557
 2590SOL     OW 7782   3.484   4.091   2.236
 2590SOL    HW1 7783   3.486   4.015   2.300
 2590SOL    HW2 7784   3.436   4.168   2.276
 2591SOL     OW 7785   2.885   4.490   2.828
 2591SOL    HW1 7786   2.900   4.511   2.924
 2591SOL    HW2 7787   2.855   4.395   2.819
 2592SOL     OW 7788   2.212   4.622   3.666
 2592SOL    HW1 7789   2.288   4.666   3.714
 2592SOL    HW2 7790   2.247   4.575   3.584
 2593SOL     OW 7791   3.402   3.998   1.987
 2593SOL    HW1 7792   3.341   3.923   2.010
 2593SOL    HW2 7793   3.424   4.050   2.070
 2594SOL     OW 7794   3.165   4.562   1.904
 2594SOL    HW1 7795   3.199   4.469   1.919
 2594SOL    HW2 7796   3.183   4.589   1.809
 2595SOL     OW 7797   2.181   4.534   2.811
 2595SOL    HW1 7798   2.274   4.570   2.816
 2595SOL    HW2 7799   2.175   4.449   2.863
 2596SOL     OW 7800   2.201   4.233   2.868
 2596SOL    HW1 7801   2.149   4.150   2.851
 2596SOL    HW2 7802   2.278   4.238   2.804
 2597SOL     OW 7803   3.000   4.104   3.540
 2597SOL    HW1 7804   2.955   4.167   3.604
 2597SOL    HW2 7805   3.093   4.135   3.523
 2598SOL     OW 7806   3.022   3.931   3.339
 2598SOL    HW1 7807   3.022   3.995   3.416
 2598SOL    HW2 7808   3.050   3.979   3.256
 2599SOL     OW 7809   2.864   4.520   3.100
 2599SOL    HW1 7810   2.905   4.488   3.186
 2599SOL    HW2 7811   2.768   4.493   3.097
 2600SOL     OW 7812   1.902   4.268   2.976
 2600SOL    HW1 7813   1.987   4.235   2.935
 2600SOL    HW2 7814   1.915   4.283   3.074
 2601SOL     OW 7815   2.051   4.244   3.584
 2601SOL    HW1 7816   2.110   4.204   3.514
 2601SOL    HW2 7817   1.993   4.315   3.543
 2602SOL     OW 7818   3.231   4.674   3.522
 2602SOL    HW1 7819   3.270   4.763   3.542
 2602SOL    HW2 7820   3.241   4.654   3.425
 2603SOL     OW 7821   2.677   4.296   2.187
 2603SOL    HW1 7822   2.684   4.207   2.141
 2603SOL    HW2 7823   2.583   4.330   2.179
 2604SOL     OW 7824   3.519   4.328   3.068
 2604SOL    HW1 7825   3.481   4.259   3.130
 2604SOL    HW2 7826   3.601   4.292   3.024
 2605SOL     OW 7827   2.533   4.188   3.131
 2605SOL    HW1 7828   2.499   4.099   3.101
 2605SOL    HW2 7829   2.559   4.242   3.051
 2606SOL     OW 7830   2.335   4.224   2.053
 2606SOL    HW1 7831   2.396   4.304   2.057
 2606SOL    HW2 7832   2.240   4.255   2.060
 2607SOL     OW 7833   3.209   4.783   3.096
 2607SOL    HW1 7834   3.233   4.720   3.022
 2607SOL    HW2 7835   3.119   4.823   3.078
 2608SOL     OW 7836   3.164   4.579   2.171
 2608SOL    HW1 7837   3.078   4.548   2.213
 2608SOL    HW2 7838   3.160   4.565   2.072
 2609SOL     OW 7839   3.588   3.859   2.385
 2609SOL    HW1 7840   3.661   3.842   2.318
 2609SOL    HW2 7841   3.557   3.772   2.423
 2610SOL     OW 7842   3.142   4.651   2.534
 2610SOL    HW1 7843   3.202   4.570   2.536
 2610SOL    HW2 7844   3.182   4.720   2.474
 2611SOL     OW 7845   3.703   3.899   2.825
 2611SOL    HW1 7846   3.742   3.814   2.789
 2611SOL    HW2 7847   3.605   3.901   2.806
 2612SOL     OW 7848   2.125   4.050   2.582
 2612SOL    HW1 7849   2.046   4.101   2.548
 2612SOL    HW2 7850   2.116   4.035   2.680
 2613SOL     OW 7851   2.778   4.634   2.153
 2613SOL    HW1 7852   2.841   4.672   2.085
 2613SOL    HW2 7853   2.818   4.551   2.192
 2614SOL     OW 7854   2.876   3.960   2.833
 2614SOL    HW1 7855   2.868   3.924   2.740
 2614SOL    HW2 7856   2.874   3.884   2.898
 2615SOL     OW 7857   3.571   4.109   3.243
 2615SOL    HW1 7858   3.644   4.178   3.247
 2615SOL    HW2 7859   3.599   4.034   3.184
 2616SOL     OW 7860   1.967   4.737   3.588
 2616SOL    HW1 7861   1.890   4.704   3.642
 2616SOL    HW2 7862   2.052   4.707   3.630
 2617SOL     OW 7863   2.534   3.927   3.351
 2617SOL    HW1 7864   2.624   3.911   3.311
 2617SOL    HW2 7865   2.542   3.932   3.450
 2618SOL     OW 7866   1.937   4.069   1.895
 2618SOL    HW1 7867   1.845   4.041   1.866
 2618SOL    HW2 7868   1.968   4.146   1.839
 2619SOL     OW 7869   3.302   4.580   3.260
 2619SOL    HW1 7870   3.245   4.632   3.197
 2619SOL    HW2 7871   3.398   4.592   3.236
 2620SOL     OW 7872   1.934   3.890   2.180
 2620SOL    HW1 7873   1.917   3.973   2.126
 2620SOL    HW2 7874   2.024   3.853   2.158
 2621SOL     OW 7875   2.475   4.566   3.293
 2621SOL    HW1 7876   2.531   4.647   3.276
 2621SOL    HW2 7877   2.534   4.486   3.296
 2622SOL     OW 7878   2.578   4.289   3.570
 2622SOL    HW1 7879   2.597   4.354   3.644
 2622SOL    HW2 7880   2.638   4.209   3.579
 2623SOL     OW 7881   3.536   4.607   3.116
 2623SOL    HW1 7882   3.509   4.518   3.079
 2623SOL    HW2 7883   3.537   4.675   3.043
 2624SOL     OW 7884   3.087   4.049   2.311
 2624SOL    HW1 7885   3.152   3.975   2.300
 2624SOL    HW2 7886   3.107   4.099   2.395
 2625SOL     OW 7887   2.456   4.469   2.514
 2625SOL    HW1 7888   2.506   4.554   2.495
 2625SOL    HW2 7889   2.368   4.471   2.466
 2626SOL     OW 7890   3.639   4.066   3.504
 2626SOL    HW1 7891   3.622   4.097   3.410
 2626SOL    HW2 7892   3.555   4.029   3.542
 2627SOL     OW 7893   3.592   4.658   3.379
 2627SOL    HW1 7894   3.630   4.749   3.394
 2627SOL    HW2 7895   3.584   4.641   3.280
 2628SOL     OW 7896   3.686   3.916   3.089
 2628SOL    HW1 7897   3.682   3.826   3.133
 2628SOL    HW2 7898   3.689   3.905   2.990
 2629SOL     OW 7899   2.290   4.148   2.382
 2629SOL    HW1 7900   2.320   4.076   2.320
 2629SOL    HW2 7901   2.251   4.108   2.465
 2630SOL     OW 7902   2.179   4.271   3.142
 2630SOL    HW1 7903   2.217   4.212   3.214
 2630SOL    HW2 7904   2.219   4.245   3.054
 2631SOL     OW 7905   3.286   3.938   2.974
 2631SOL    HW1 7906   3.338   3.873   3.029
 2631SOL    HW2 7907   3.237   4.001   3.035
 2632SOL     OW 7908   2.863   3.758   3.016
 2632SOL    HW1 7909   2.800   3.686   2.985
 2632SOL    HW2 7910   2.956   3.722   3.016
 2633SOL     OW 7911   3.214   3.776   2.030
 2633SOL    HW1 7912   3.249   3.735   1.946
 2633SOL    HW2 7913   3.124   3.738   2.050
 2634SOL     OW 7914   3.162   4.177   2.553
 2634SOL    HW1 7915   3.103   4.257   2.557
 2634SOL    HW2 7916   3.177   4.142   2.646
 2635SOL     OW 7917   3.455   3.945   2.744
 2635SOL    HW1 7918   3.371   3.944   2.798
 2635SOL    HW2 7919   3.457   4.028   2.688
 2636SOL     OW 7920   2.092   4.352   3.837
 2636SOL    HW1 7921   1.999   4.350   3.874
 2636SOL    HW2 7922   2.093   4.313   3.745
 2637SOL     OW 7923   2.087   3.999   4.720
 2637SOL    HW1 7924   2.122   3.982   4.812
 2637SOL    HW2 7925   1.999   3.954   4.708
 2638SOL     OW 7926   1.881   4.092   4.371
 2638SOL    HW1 7927   1.799   4.135   4.410
 2638SOL    HW2 7928   1.853   4.019   4.308
 2639SOL     OW 7929   2.997   4.427   4.441
 2639SOL    HW1 7930   3.054   4.505   4.416
 2639SOL    HW2 7931   2.937   4.453   4.517
 2640SOL     OW 7932   3.617   4.331   3.955
 2640SOL    HW1 7933   3.605   4.318   3.856
 2640SOL    HW2 7934   3.587   4.250   4.004
 2641SOL     OW 7935   2.547   4.736   4.389
 2641SOL    HW1 7936   2.616   4.720   4.459
 2641SOL    HW2 7937   2.474   4.793   4.427
 2642SOL     OW 7938   3.465   4.171   4.461
 2642SOL    HW1 7939   3.391   4.217   4.411
 2642SOL    HW2 7940   3.516   4.239   4.514
 2643SOL     OW 7941   1.984   4.367   4.287
 2643SOL    HW1 7942   1.939   4.279   4.304
 2643SOL    HW2 7943   1.983   4.421   4.371
 2644SOL     OW 7944   2.671   3.728   4.226
 2644SOL    HW1 7945   2.711   3.819   4.217
 2644SOL    HW2 7946   2.571   3.736   4.232
 2645SOL     OW 7947   3.387   4.723   3.914
 2645SOL    HW1 7948   3.324   4.647   3.927
 2645SOL    HW2 7949   3.435   4.741   4.000
 2646SOL     OW 7950   2.460   4.453   3.994
 2646SOL    HW1 7951   2.484   4.522   3.926
 2646SOL    HW2 7952   2.382   4.486   4.048
 2647SOL     OW 7953   3.143   4.069   4.668
 2647SOL    HW1 7954   3.057   4.019   4.655
 2647SOL    HW2 7955   3.205   4.015   4.724
 2648SOL     OW 7956   2.903   4.425   4.153
 2648SOL    HW1 7957   2.929   4.421   4.249
 2648SOL    HW2 7958   2.818   4.374   4.139
 2649SOL     OW 7959   1.938   4.535   4.513
 2649SOL    HW1 7960   2.037   4.523   4.522
 2649SOL    HW2 7961   1.914   4.630   4.534
 2650SOL     OW 7962   2.727   4.072   3.919
 2650SOL    HW1 7963   2.786   4.135   3.870
 2650SOL    HW2 7964   2.746   3.978   3.890
 2651SOL     OW 7965   2.412   3.920   4.609
 2651SOL    HW1 7966   2.407   3.915   4.709
 2651SOL    HW2 7967   2.414   4.016   4.580
 2652SOL     OW 7968   3.320   4.459   4.452
 2652SOL    HW1 7969   3.315   4.394   4.527
 2652SOL    HW2 7970   3.400   4.518   4.465
 2653SOL     OW 7971   3.262   3.831   4.150
 2653SOL    HW1 7972   3.238   3.794   4.060
 2653SOL    HW2 7973   3.361   3.847   4.154
 2654SOL     OW 7974   2.244   4.424   4.204
 2654SOL    HW1 7975   2.289   4.334   4.201
 2654SOL    HW2 7976   2.150   4.413   4.237
 2655SOL     OW 7977   2.476   3.846   3.841
 2655SOL    HW1 7978   2.574   3.824   3.848
 2655SOL    HW2 7979   2.445   3.829   3.748
 2656SOL     OW 7980   2.401   3.788   4.236
 2656SOL    HW1 7981   2.320   3.789   4.294
 2656SOL    HW2 7982   2.404   3.871   4.181
 2657SOL     OW 7983   2.159   3.759   3.895
 2657SOL    HW1 7984   2.208   3.843   3.874
 2657SOL    HW2 7985   2.221   3.694   3.940
 2658SOL     OW 7986   2.797   3.960   4.204
 2658SOL    HW1 7987   2.749   4.001   4.126
 2658SOL    HW2 7988   2.896   3.958   4.185
 2659SOL     OW 7989   2.894   4.273   3.740
 2659SOL    HW1 7990   2.853   4.355   3.701
 2659SOL    HW2 7991   2.958   4.299   3.813
 2660SOL     OW 7992   2.728   4.178   4.366
 2660SOL    HW1 7993   2.696   4.250   4.304
 2660SOL    HW2 7994   2.752   4.097   4.313
 2661SOL     OW 7995   2.879   3.763   4.477
 2661SOL    HW1 7996   2.807   3.768   4.408
 2661SOL    HW2 7997   2.855   3.694   4.546
 2662SOL     OW 7998   3.719   4.557   4.101
 2662SOL    HW1 7999   3.761   4.493   4.165
 2662SOL    HW2 8000   3.681   4.506   4.023
 2663SOL     OW 8001   3.252   4.299   3.802
 2663SOL    HW1 8002   3.198   4.278   3.883
 2663SOL    HW2 8003   3.343   4.258   3.811
 2664SOL     OW 8004   2.389   3.980   4.052
 2664SOL    HW1 8005   2.416   3.921   3.977
 2664SOL    HW2 8006   2.389   4.075   4.021
 2665SOL     OW 8007   2.973   4.919   4.824
 2665SOL    HW1 8008   2.933   4.963   4.905
 2665SOL    HW2 8009   2.932   4.956   4.741
 2666SOL     OW 8010   2.428   4.261   4.589
 2666SOL    HW1 8011   2.440   4.327   4.515
 2666SOL    HW2 8012   2.474   4.295   4.672
 2667SOL     OW 8013   3.444   4.363   4.196
 2667SOL    HW1 8014   3.413   4.424   4.269
 2667SOL    HW2 8015   3.494   4.415   4.127
 2668SOL     OW 8016   2.435   4.594   4.753
 2668SOL    HW1 8017   2.479   4.683   4.744
 2668SOL    HW2 8018   2.372   4.594   4.830
 2669SOL     OW 8019   3.071   4.249   3.999
 2669SOL    HW1 8020   3.084   4.165   4.053
 2669SOL    HW2 8021   3.042   4.323   4.059
 2670SOL     OW 8022   2.594   4.358   4.788
 2670SOL    HW1 8023   2.653   4.332   4.712
 2670SOL    HW2 8024   2.566   4.454   4.777
 2671SOL     OW 8025   2.169   3.787   4.342
 2671SOL    HW1 8026   2.158   3.881   4.375
 2671SOL    HW2 8027   2.164   3.724   4.419
 2672SOL     OW 8028   3.484   4.091   4.098
 2672SOL    HW1 8029   3.486   4.015   4.162
 2672SOL    HW2 8030   3.436   4.168   4.138
 2673SOL     OW 8031   3.402   3.998   3.849
 2673SOL    HW1 8032   3.341   3.923   3.872
 2673SOL    HW2 8033   3.424   4.050   3.932
 2674SOL     OW 8034   3.165   4.562   3.766
 2674SOL    HW1 8035   3.199   4.469   3.781
 2674SOL    HW2 8036   3.183   4.589   3.671
 2675SOL     OW 8037   2.930   5.057   4.573
 2675SOL    HW1 8038   2.937   4.973   4.518
 2675SOL    HW2 8039   2.992   5.126   4.537
 2676SOL     OW 8040   2.181   4.534   4.673
 2676SOL    HW1 8041   2.274   4.570   4.678
 2676SOL    HW2 8042   2.175   4.449   4.725
 2677SOL     OW 8043   2.677   4.296   4.049
 2677SOL    HW1 8044   2.684   4.207   4.003
 2677SOL    HW2 8045   2.583   4.330   4.041
 2678SOL     OW 8046   2.335   4.224   3.915
 2678SOL    HW1 8047   2.396   4.304   3.919
 2678SOL    HW2 8048   2.240   4.255   3.922
 2679SOL     OW 8049   3.164   4.579   4.033
 2679SOL    HW1 8050   3.078   4.548   4.075
 2679SOL    HW2 8051   3.160   4.565   3.934
 2680SOL     OW 8052   3.588   3.859   4.247
 2680SOL    HW1 8053   3.661   3.842   4.180
 2680SOL    HW2 8054   3.557   3.772   4.285
 2681SOL     OW 8055   3.142   4.651   4.396
 2681SOL    HW1 8056   3.202   4.570   4.398
 2681SOL    HW2 8057   3.182   4.720   4.336
 2682SOL     OW 8058   3.703   3.899   4.687
 2682SOL    HW1 8059   3.742   3.814   4.651
 2682SOL    HW2 8060   3.605   3.901   4.668
 2683SOL     OW 8061   2.125   4.050   4.444
 2683SOL    HW1 8062   2.046   4.101   4.410
 2683SOL    HW2 8063   2.116   4.035   4.542
 2684SOL     OW 8064   2.778   4.634   4.015
 2684SOL    HW1 8065   2.841   4.672   3.947
 2684SOL    HW2 8066   2.818   4.551   4.054
 2685SOL     OW 8067   1.937   4.069   3.757
 2685SOL    HW1 8068   1.845   4.041   3.728
 2685SOL    HW2 8069   1.968   4.146   3.701
 2686SOL     OW 8070   1.934   3.890   4.042
 2686SOL    HW1 8071   1.917   3.973   3.988
 2686SOL    HW2 8072   2.024   3.853   4.020
 2687SOL     OW 8073   3.536   4.607   4.978
 2687SOL    HW1 8074   3.509   4.518   4.941
 2687SOL    HW2 8075   3.537   4.675   4.905
 2688SOL     OW 8076   3.087   4.049   4.173
 2688SOL    HW1 8077   3.152   3.975   4.162
 2688SOL    HW2 8078   3.107   4.099   4.257
 2689SOL     OW 8079   2.456   4.469   4.376
 2689SOL    HW1 8080   2.506   4.554   4.357
 2689SOL    HW2 8081   2.368   4.471   4.328
 2690SOL     OW 8082   2.290   4.148   4.244
 2690SOL    HW1 8083   2.320   4.076   4.182
 2690SOL    HW2 8084   2.251   4.108   4.327
 2691SOL     OW 8085   3.214   3.776   3.892
 2691SOL    HW1 8086   3.249   3.735   3.808
 2691SOL    HW2 8087   3.124   3.738   3.912
 2692SOL     OW 8088   3.162   4.177   4.415
 2692SOL    HW1 8089   3.103   4.257   4.419
 2692SOL    HW2 8090   3.177   4.142   4.508
 2693SOL     OW 8091   3.455   3.945   4.606
 2693SOL    HW1 8092   3.371   3.944   4.660
 2693SOL    HW2 8093   3.457   4.028   4.550
 2694SOL     OW 8094   3.954   0.628   0.113
 2694SOL    HW1 8095   3.861   0.626   0.150
 2694SOL    HW2 8096   3.955   0.589   0.021
 2695SOL     OW 8097   3.949   0.275   0.996
 2695SOL    HW1 8098   3.984   0.258   1.088
 2695SOL    HW2 8099   3.861   0.230   0.984
 2696SOL     OW 8100   3.743   0.368   0.647
 2696SOL    HW1 8101   3.661   0.411   0.686
 2696SOL    HW2 8102   3.715   0.295   0.584
 2697SOL     OW 8103   4.293   1.275   1.165
 2697SOL    HW1 8104   4.200   1.268   1.128
 2697SOL    HW2 8105   4.304   1.364   1.209
 2698SOL     OW 8106   4.492   1.144   1.023
 2698SOL    HW1 8107   4.414   1.161   1.083
 2698SOL    HW2 8108   4.526   1.231   0.987
 2699SOL     OW 8109   4.574   0.798   1.823
 2699SOL    HW1 8110   4.570   0.874   1.888
 2699SOL    HW2 8111   4.596   0.834   1.732
 2700SOL     OW 8112   4.409   1.012   0.665
 2700SOL    HW1 8113   4.478   0.996   0.735
 2700SOL    HW2 8114   4.336   1.069   0.703
 2701SOL     OW 8115   4.410   1.161   1.803
 2701SOL    HW1 8116   4.470   1.240   1.817
 2701SOL    HW2 8117   4.324   1.192   1.762
 2702SOL     OW 8118   4.059   1.435   1.061
 2702SOL    HW1 8119   3.981   1.404   1.008
 2702SOL    HW2 8120   4.117   1.493   1.004
 2703SOL     OW 8121   4.162   0.392   1.499
 2703SOL    HW1 8122   4.244   0.336   1.508
 2703SOL    HW2 8123   4.081   0.334   1.503
 2704SOL     OW 8124   3.955   1.713   0.483
 2704SOL    HW1 8125   3.989   1.790   0.537
 2704SOL    HW2 8126   3.999   1.713   0.393
 2705SOL     OW 8127   3.954   1.434   0.538
 2705SOL    HW1 8128   3.928   1.530   0.538
 2705SOL    HW2 8129   3.883   1.380   0.583
 2706SOL     OW 8130   3.964   1.091   0.886
 2706SOL    HW1 8131   3.978   1.007   0.938
 2706SOL    HW2 8132   3.909   1.155   0.941
 2707SOL     OW 8133   4.344   1.786   1.439
 2707SOL    HW1 8134   4.252   1.769   1.474
 2707SOL    HW2 8135   4.372   1.878   1.465
 2708SOL     OW 8136   4.330   0.964   0.123
 2708SOL    HW1 8137   4.337   1.048   0.069
 2708SOL    HW2 8138   4.376   0.977   0.211
 2709SOL     OW 8139   3.846   0.643   0.563
 2709SOL    HW1 8140   3.801   0.555   0.580
 2709SOL    HW2 8141   3.845   0.697   0.647
 2710SOL     OW 8142   3.837   0.737   1.597
 2710SOL    HW1 8143   3.925   0.724   1.642
 2710SOL    HW2 8144   3.824   0.834   1.575
 2711SOL     OW 8145   4.337   1.365   0.726
 2711SOL    HW1 8146   4.288   1.278   0.735
 2711SOL    HW2 8147   4.314   1.408   0.639
 2712SOL     OW 8148   4.533   0.004   0.502
 2712SOL    HW1 8149   4.573   0.095   0.493
 2712SOL    HW2 8150   4.433   0.012   0.508
 2713SOL     OW 8151   3.921   0.976   1.264
 2713SOL    HW1 8152   4.010   0.931   1.250
 2713SOL    HW2 8153   3.848   0.911   1.245
 2714SOL     OW 8154   4.041   0.251   1.801
 2714SOL    HW1 8155   4.112   0.322   1.807
 2714SOL    HW2 8156   3.953   0.290   1.829
 2715SOL     OW 8157   4.322   0.729   0.270
 2715SOL    HW1 8158   4.346   0.798   0.202
 2715SOL    HW2 8159   4.244   0.762   0.324
 2716SOL     OW 8160   4.531   0.605   1.465
 2716SOL    HW1 8161   4.484   0.602   1.554
 2716SOL    HW2 8162   4.480   0.550   1.399
 2717SOL     OW 8163   3.800   0.811   0.789
 2717SOL    HW1 8164   3.899   0.799   0.798
 2717SOL    HW2 8165   3.776   0.906   0.810
 2718SOL     OW 8166   3.854   1.821   1.571
 2718SOL    HW1 8167   3.844   1.806   1.670
 2718SOL    HW2 8168   3.768   1.857   1.535
 2719SOL     OW 8169   4.589   0.348   0.195
 2719SOL    HW1 8170   4.648   0.411   0.146
 2719SOL    HW2 8171   4.608   0.254   0.166
 2720SOL     OW 8172   4.274   0.196   0.885
 2720SOL    HW1 8173   4.269   0.191   0.985
 2720SOL    HW2 8174   4.276   0.292   0.856
 2721SOL     OW 8175   4.732   1.456   0.477
 2721SOL    HW1 8176   4.686   1.528   0.425
 2721SOL    HW2 8177   4.728   1.476   0.575
 2722SOL     OW 8178   4.075   1.801   0.853
 2722SOL    HW1 8179   4.125   1.715   0.859
 2722SOL    HW2 8180   4.140   1.878   0.850
 2723SOL     OW 8181   4.045   0.943   0.242
 2723SOL    HW1 8182   4.127   0.982   0.200
 2723SOL    HW2 8183   4.018   0.861   0.193
 2724SOL     OW 8184   4.185   1.266   1.727
 2724SOL    HW1 8185   4.135   1.267   1.641
 2724SOL    HW2 8186   4.122   1.248   1.803
 2725SOL     OW 8187   3.926   0.285   1.498
 2725SOL    HW1 8188   3.846   0.345   1.485
 2725SOL    HW2 8189   3.916   0.236   1.584
 2726SOL     OW 8190   4.188   1.743   0.323
 2726SOL    HW1 8191   4.221   1.782   0.409
 2726SOL    HW2 8192   4.264   1.736   0.258
 2727SOL     OW 8193   3.973   1.785   1.241
 2727SOL    HW1 8194   4.030   1.720   1.291
 2727SOL    HW2 8195   3.957   1.752   1.148
 2728SOL     OW 8196   4.106   0.700   0.480
 2728SOL    HW1 8197   4.151   0.610   0.477
 2728SOL    HW2 8198   4.012   0.689   0.513
 2729SOL     OW 8199   4.338   0.122   0.117
 2729SOL    HW1 8200   4.436   0.100   0.124
 2729SOL    HW2 8201   4.307   0.105   0.024
 2730SOL     OW 8202   4.505   0.264   1.749
 2730SOL    HW1 8203   4.572   0.203   1.792
 2730SOL    HW2 8204   4.432   0.283   1.814
 2731SOL     OW 8205   4.527   1.402   0.924
 2731SOL    HW1 8206   4.617   1.416   0.882
 2731SOL    HW2 8207   4.456   1.404   0.853
 2732SOL     OW 8208   4.646   0.503   0.899
 2732SOL    HW1 8209   4.621   0.494   0.803
 2732SOL    HW2 8210   4.694   0.421   0.930
 2733SOL     OW 8211   4.263   0.064   0.512
 2733SOL    HW1 8212   4.182   0.065   0.570
 2733SOL    HW2 8213   4.266   0.147   0.457
 2734SOL     OW 8214   4.021   0.035   0.171
 2734SOL    HW1 8215   4.070   0.119   0.150
 2734SOL    HW2 8216   4.083  -0.030   0.216
 2735SOL     OW 8217   4.951   1.570   0.793
 2735SOL    HW1 8218   4.972   1.644   0.728
 2735SOL    HW2 8219   5.019   1.570   0.866
 2736SOL     OW 8220   4.183   1.152   0.741
 2736SOL    HW1 8221   4.112   1.125   0.806
 2736SOL    HW2 8222   4.157   1.124   0.648
 2737SOL     OW 8223   3.802   0.556   1.386
 2737SOL    HW1 8224   3.894   0.555   1.345
 2737SOL    HW2 8225   3.796   0.630   1.453
 2738SOL     OW 8226   4.285   0.222   1.147
 2738SOL    HW1 8227   4.323   0.138   1.184
 2738SOL    HW2 8228   4.197   0.241   1.191
 2739SOL     OW 8229   4.212   1.385   0.174
 2739SOL    HW1 8230   4.125   1.370   0.221
 2739SOL    HW2 8231   4.195   1.411   0.079
 2740SOL     OW 8232   4.251   0.256   0.328
 2740SOL    HW1 8233   4.278   0.197   0.253
 2740SOL    HW2 8234   4.251   0.351   0.297
 2741SOL     OW 8235   4.639   0.089   1.402
 2741SOL    HW1 8236   4.664   0.069   1.307
 2741SOL    HW2 8237   4.711   0.145   1.444
 2742SOL     OW 8238   4.429   1.050   0.368
 2742SOL    HW1 8239   4.415   1.057   0.467
 2742SOL    HW2 8240   4.513   0.999   0.350
 2743SOL     OW 8241   4.134   0.813   1.251
 2743SOL    HW1 8242   4.220   0.825   1.301
 2743SOL    HW2 8243   4.092   0.726   1.278
 2744SOL     OW 8244   3.788   1.564   1.331
 2744SOL    HW1 8245   3.742   1.646   1.297
 2744SOL    HW2 8246   3.886   1.583   1.340
 2745SOL     OW 8247   4.091   1.100   0.501
 2745SOL    HW1 8248   4.084   1.183   0.445
 2745SOL    HW2 8249   4.095   1.020   0.441
 2746SOL     OW 8250   4.290   0.537   0.865
 2746SOL    HW1 8251   4.302   0.603   0.791
 2746SOL    HW2 8252   4.336   0.571   0.948
 2747SOL     OW 8253   4.078   1.510   1.329
 2747SOL    HW1 8254   4.057   1.466   1.242
 2747SOL    HW2 8255   4.175   1.536   1.332
 2748SOL     OW 8256   4.126   0.751   1.598
 2748SOL    HW1 8257   4.194   0.806   1.551
 2748SOL    HW2 8258   4.166   0.663   1.625
 2749SOL     OW 8259   4.228   0.050   1.740
 2749SOL    HW1 8260   4.186  -0.007   1.670
 2749SOL    HW2 8261   4.162   0.119   1.772
 2750SOL     OW 8262   4.297   0.870   1.029
 2750SOL    HW1 8263   4.341   0.959   1.020
 2750SOL    HW2 8264   4.234   0.870   1.106
 2751SOL     OW 8265   4.933   0.525   0.275
 2751SOL    HW1 8266   4.946   0.441   0.329
 2751SOL    HW2 8267   4.904   0.599   0.335
 2752SOL     OW 8268   4.031   0.213   1.231
 2752SOL    HW1 8269   4.008   0.250   1.321
 2752SOL    HW2 8270   4.001   0.118   1.225
 2753SOL     OW 8271   3.761   1.310   1.282
 2753SOL    HW1 8272   3.814   1.261   1.350
 2753SOL    HW2 8273   3.783   1.408   1.287
 2754SOL     OW 8274   4.456   0.634   1.064
 2754SOL    HW1 8275   4.515   0.608   0.988
 2754SOL    HW2 8276   4.428   0.730   1.053
 2755SOL     OW 8277   4.031   0.063   0.618
 2755SOL    HW1 8278   4.020   0.157   0.651
 2755SOL    HW2 8279   4.026   0.000   0.695
 2756SOL     OW 8280   4.747   0.766   0.966
 2756SOL    HW1 8281   4.762   0.787   1.062
 2756SOL    HW2 8282   4.717   0.671   0.957
 2757SOL     OW 8283   4.704   1.573   1.700
 2757SOL    HW1 8284   4.684   1.617   1.612
 2757SOL    HW2 8285   4.743   1.482   1.684
 2758SOL     OW 8286   4.074   0.898   1.804
 2758SOL    HW1 8287   4.150   0.942   1.852
 2758SOL    HW2 8288   4.109   0.851   1.722
 2759SOL     OW 8289   4.043   0.810   0.949
 2759SOL    HW1 8290   4.136   0.846   0.954
 2759SOL    HW2 8291   4.037   0.725   1.001
 2760SOL     OW 8292   4.063   0.509   1.006
 2760SOL    HW1 8293   4.011   0.426   0.989
 2760SOL    HW2 8294   4.140   0.514   0.942
 2761SOL     OW 8295   3.732   1.326   0.200
 2761SOL    HW1 8296   3.639   1.347   0.169
 2761SOL    HW2 8297   3.742   1.227   0.213
 2762SOL     OW 8298   3.812   1.801   0.927
 2762SOL    HW1 8299   3.770   1.715   0.900
 2762SOL    HW2 8300   3.906   1.804   0.893
 2763SOL     OW 8301   4.228   1.568   0.910
 2763SOL    HW1 8302   4.294   1.642   0.919
 2763SOL    HW2 8303   4.272   1.489   0.868
 2764SOL     OW 8304   4.726   0.796   1.238
 2764SOL    HW1 8305   4.767   0.764   1.324
 2764SOL    HW2 8306   4.630   0.769   1.235
 2765SOL     OW 8307   3.764   0.544   1.114
 2765SOL    HW1 8308   3.849   0.511   1.073
 2765SOL    HW2 8309   3.777   0.559   1.212
 2766SOL     OW 8310   3.913   0.520   1.722
 2766SOL    HW1 8311   3.972   0.480   1.652
 2766SOL    HW2 8312   3.855   0.591   1.681
 2767SOL     OW 8313   4.539   0.572   0.325
 2767SOL    HW1 8314   4.546   0.483   0.279
 2767SOL    HW2 8315   4.445   0.606   0.317
 2768SOL     OW 8316   3.976   1.564   1.744
 2768SOL    HW1 8317   3.946   1.621   1.820
 2768SOL    HW2 8318   3.969   1.467   1.770
 2769SOL     OW 8319   4.395   0.464   1.269
 2769SOL    HW1 8320   4.361   0.375   1.239
 2769SOL    HW2 8321   4.421   0.518   1.189
 2770SOL     OW 8322   4.197   0.500   0.191
 2770SOL    HW1 8323   4.258   0.580   0.195
 2770SOL    HW2 8324   4.102   0.531   0.198
 2771SOL     OW 8325   3.883   1.137   1.466
 2771SOL    HW1 8326   3.905   1.076   1.542
 2771SOL    HW2 8327   3.893   1.088   1.380
 2772SOL     OW 8328   3.807   1.258   1.022
 2772SOL    HW1 8329   3.802   1.257   1.122
 2772SOL    HW2 8330   3.724   1.217   0.984
 2773SOL     OW 8331   4.412   1.662   1.716
 2773SOL    HW1 8332   4.356   1.743   1.725
 2773SOL    HW2 8333   4.464   1.666   1.630
 2774SOL     OW 8334   4.627   0.086   0.133
 2774SOL    HW1 8335   4.678   0.087   0.047
 2774SOL    HW2 8336   4.683   0.044   0.204
 2775SOL     OW 8337   3.854   1.794   1.851
 2775SOL    HW1 8338   3.813   1.720   1.904
 2775SOL    HW2 8339   3.918   1.845   1.909
 2776SOL     OW 8340   4.554   1.273   1.422
 2776SOL    HW1 8341   4.549   1.306   1.517
 2776SOL    HW2 8342   4.468   1.292   1.376
 2777SOL     OW 8343   4.396   1.616   0.154
 2777SOL    HW1 8344   4.405   1.626   0.055
 2777SOL    HW2 8345   4.356   1.527   0.175
 2778SOL     OW 8346   3.987   0.326   0.720
 2778SOL    HW1 8347   3.908   0.377   0.686
 2778SOL    HW2 8348   3.978   0.311   0.818
 2779SOL     OW 8349   4.918   1.612   0.031
 2779SOL    HW1 8350   4.924   1.519   0.068
 2779SOL    HW2 8351   4.859   1.612  -0.049
 2780SOL     OW 8352   4.546   1.002   1.372
 2780SOL    HW1 8353   4.586   1.001   1.280
 2780SOL    HW2 8354   4.556   1.094   1.412
 2781SOL     OW 8355   4.096   1.288   1.490
 2781SOL    HW1 8356   4.083   1.381   1.456
 2781SOL    HW2 8357   4.012   1.236   1.477
 2782SOL     OW 8358   4.314   1.487   0.491
 2782SOL    HW1 8359   4.356   1.429   0.421
 2782SOL    HW2 8360   4.270   1.566   0.447
 2783SOL     OW 8361   3.979   1.348   0.290
 2783SOL    HW1 8362   3.883   1.349   0.263
 2783SOL    HW2 8363   3.991   1.401   0.374
 2784SOL     OW 8364   3.829   1.013   1.726
 2784SOL    HW1 8365   3.752   0.980   1.780
 2784SOL    HW2 8366   3.914   0.983   1.768
 2785SOL     OW 8367   4.396   0.203   1.489
 2785SOL    HW1 8368   4.486   0.187   1.449
 2785SOL    HW2 8369   4.404   0.208   1.588
 2786SOL     OW 8370   4.337   0.842   1.431
 2786SOL    HW1 8371   4.393   0.923   1.414
 2786SOL    HW2 8372   4.396   0.762   1.434
 2787SOL     OW 8373   4.440   0.565   1.708
 2787SOL    HW1 8374   4.459   0.630   1.782
 2787SOL    HW2 8375   4.500   0.485   1.717
 2788SOL     OW 8376   4.114   1.741   1.560
 2788SOL    HW1 8377   4.023   1.782   1.558
 2788SOL    HW2 8378   4.107   1.647   1.592
 2789SOL     OW 8379   4.949   0.325   0.449
 2789SOL    HW1 8380   5.014   0.251   0.438
 2789SOL    HW2 8381   4.969   0.375   0.533
 2790SOL     OW 8382   4.318   0.745   0.652
 2790SOL    HW1 8383   4.368   0.830   0.633
 2790SOL    HW2 8384   4.230   0.747   0.604
 2791SOL     OW 8385   4.385   1.790   0.953
 2791SOL    HW1 8386   4.339   1.878   0.940
 2791SOL    HW2 8387   4.484   1.802   0.946
 2792SOL     OW 8388   4.583   0.956   0.861
 2792SOL    HW1 8389   4.637   0.887   0.909
 2792SOL    HW2 8390   4.551   1.025   0.927
 2793SOL     OW 8391   4.807   0.984   0.087
 2793SOL    HW1 8392   4.784   1.037   0.005
 2793SOL    HW2 8393   4.888   0.928   0.068
 2794SOL     OW 8394   3.945   1.314   1.844
 2794SOL    HW1 8395   3.880   1.241   1.823
 2794SOL    HW2 8396   3.949   1.328   1.942
 2795SOL     OW 8397   3.803   1.240   0.653
 2795SOL    HW1 8398   3.802   1.193   0.741
 2795SOL    HW2 8399   3.885   1.212   0.602
 2796SOL     OW 8400   4.396   1.391   1.624
 2796SOL    HW1 8401   4.318   1.341   1.662
 2796SOL    HW2 8402   4.393   1.486   1.655
 2797SOL     OW 8403   4.152   0.424   0.520
 2797SOL    HW1 8404   4.182   0.352   0.458
 2797SOL    HW2 8405   4.113   0.384   0.603
 2798SOL     OW 8406   4.041   0.547   1.280
 2798SOL    HW1 8407   4.079   0.488   1.352
 2798SOL    HW2 8408   4.081   0.521   1.192
 2799SOL     OW 8409   4.536   1.586   0.687
 2799SOL    HW1 8410   4.568   1.596   0.593
 2799SOL    HW2 8411   4.457   1.524   0.689
 2800SOL     OW 8412   4.494   1.330   0.301
 2800SOL    HW1 8413   4.448   1.243   0.318
 2800SOL    HW2 8414   4.585   1.327   0.342
 2801SOL     OW 8415   4.342   1.567   1.284
 2801SOL    HW1 8416   4.337   1.649   1.341
 2801SOL    HW2 8417   4.431   1.564   1.239
 2802SOL     OW 8418   3.763   1.077   0.300
 2802SOL    HW1 8419   3.862   1.066   0.291
 2802SOL    HW2 8420   3.723   0.991   0.332
 2803SOL     OW 8421   4.599   1.646   0.337
 2803SOL    HW1 8422   4.522   1.611   0.283
 2803SOL    HW2 8423   4.567   1.717   0.399
 2804SOL     OW 8424   3.954   0.628   1.975
 2804SOL    HW1 8425   3.861   0.626   2.012
 2804SOL    HW2 8426   3.955   0.589   1.883
 2805SOL     OW 8427   3.949   0.275   2.858
 2805SOL    HW1 8428   3.984   0.258   2.950
 2805SOL    HW2 8429   3.861   0.230   2.846
 2806SOL     OW 8430   3.743   0.368   2.509
 2806SOL    HW1 8431   3.661   0.411   2.548
 2806SOL    HW2 8432   3.715   0.295   2.446
 2807SOL     OW 8433   4.293   1.275   3.027
 2807SOL    HW1 8434   4.200   1.268   2.990
 2807SOL    HW2 8435   4.304   1.364   3.071
 2808SOL     OW 8436   4.492   1.144   2.885
 2808SOL    HW1 8437   4.414   1.161   2.945
 2808SOL    HW2 8438   4.526   1.231   2.849
 2809SOL     OW 8439   4.574   0.798   3.685
 2809SOL    HW1 8440   4.570   0.874   3.750
 2809SOL    HW2 8441   4.596   0.834   3.594
 2810SOL     OW 8442   4.409   1.012   2.527
 2810SOL    HW1 8443   4.478   0.996   2.597
 2810SOL    HW2 8444   4.336   1.069   2.565
 2811SOL     OW 8445   4.410   1.161   3.665
 2811SOL    HW1 8446   4.470   1.240   3.679
 2811SOL    HW2 8447   4.324   1.192   3.624
 2812SOL     OW 8448   4.059   1.435   2.923
 2812SOL    HW1 8449   3.981   1.404   2.870
 2812SOL    HW2 8450   4.117   1.493   2.866
 2813SOL     OW 8451   4.162   0.392   3.361
 2813SOL    HW1 8452   4.244   0.336   3.370
 2813SOL    HW2 8453   4.081   0.334   3.365
 2814SOL     OW 8454   3.955   1.713   2.345
 2814SOL    HW1 8455   3.989   1.790   2.399
 2814SOL    HW2 8456   3.999   1.713   2.255
 2815SOL     OW 8457   3.954   1.434   2.400
 2815SOL    HW1 8458   3.928   1.530   2.400
 2815SOL    HW2 8459   3.883   1.380   2.445
 2816SOL     OW 8460   3.964   1.091   2.748
 2816SOL    HW1 8461   3.978   1.007   2.800
 2816SOL    HW2 8462   3.909   1.155   2.803
 2817SOL     OW 8463   4.344   1.786   3.301
 2817SOL    HW1 8464   4.252   1.769   3.336
 2817SOL    HW2 8465   4.372   1.878   3.327
 2818SOL     OW 8466   4.330   0.964   1.985
 2818SOL    HW1 8467   4.337   1.048   1.931
 2818SOL    HW2 8468   4.376   0.977   2.073
 2819SOL     OW 8469   3.846   0.643   2.425
 2819SOL    HW1 8470   3.801   0.555   2.442
 2819SOL    HW2 8471   3.845   0.697   2.509
 2820SOL     OW 8472   3.751   1.596   1.979
 2820SOL    HW1 8473   3.732   1.500   2.000
 2820SOL    HW2 8474   3.718   1.654   2.054
 2821SOL     OW 8475   3.837   0.737   3.459
 2821SOL    HW1 8476   3.925   0.724   3.504
 2821SOL    HW2 8477   3.824   0.834   3.437
 2822SOL     OW 8478   4.337   1.365   2.588
 2822SOL    HW1 8479   4.288   1.278   2.597
 2822SOL    HW2 8480   4.314   1.408   2.501
 2823SOL     OW 8481   4.533   0.004   2.364
 2823SOL    HW1 8482   4.573   0.095   2.355
 2823SOL    HW2 8483   4.433   0.012   2.370
 2824SOL     OW 8484   3.921   0.976   3.126
 2824SOL    HW1 8485   4.010   0.931   3.112
 2824SOL    HW2 8486   3.848   0.911   3.107
 2825SOL     OW 8487   4.041   0.251   3.663
 2825SOL    HW1 8488   4.112   0.322   3.669
 2825SOL    HW2 8489   3.953   0.290   3.691
 2826SOL     OW 8490   4.322   0.729   2.132
 2826SOL    HW1 8491   4.346   0.798   2.064
 2826SOL    HW2 8492   4.244   0.762   2.186
 2827SOL     OW 8493   4.531   0.605   3.327
 2827SOL    HW1 8494   4.484   0.602   3.416
 2827SOL    HW2 8495   4.480   0.550   3.261
 2828SOL     OW 8496   3.800   0.811   2.651
 2828SOL    HW1 8497   3.899   0.799   2.660
 2828SOL    HW2 8498   3.776   0.906   2.672
 2829SOL     OW 8499   3.854   1.821   3.433
 2829SOL    HW1 8500   3.844   1.806   3.532
 2829SOL    HW2 8501   3.768   1.857   3.397
 2830SOL     OW 8502   4.589   0.348   2.057
 2830SOL    HW1 8503   4.648   0.411   2.008
 2830SOL    HW2 8504   4.608   0.254   2.028
 2831SOL     OW 8505   4.274   0.196   2.747
 2831SOL    HW1 8506   4.269   0.191   2.847
 2831SOL    HW2 8507   4.276   0.292   2.718
 2832SOL     OW 8508   4.732   1.456   2.339
 2832SOL    HW1 8509   4.686   1.528   2.287
 2832SOL    HW2 8510   4.728   1.476   2.437
 2833SOL     OW 8511   4.075   1.801   2.715
 2833SOL    HW1 8512   4.125   1.715   2.721
 2833SOL    HW2 8513   4.140   1.878   2.712
 2834SOL     OW 8514   4.045   0.943   2.104
 2834SOL    HW1 8515   4.127   0.982   2.062
 2834SOL    HW2 8516   4.018   0.861   2.055
 2835SOL     OW 8517   4.185   1.266   3.589
 2835SOL    HW1 8518   4.135   1.267   3.503
 2835SOL    HW2 8519   4.122   1.248   3.665
 2836SOL     OW 8520   3.926   0.285   3.360
 2836SOL    HW1 8521   3.846   0.345   3.347
 2836SOL    HW2 8522   3.916   0.236   3.446
 2837SOL     OW 8523   4.188   1.743   2.185
 2837SOL    HW1 8524   4.221   1.782   2.271
 2837SOL    HW2 8525   4.264   1.736   2.120
 2838SOL     OW 8526   3.973   1.785   3.103
 2838SOL    HW1 8527   4.030   1.720   3.153
 2838SOL    HW2 8528   3.957   1.752   3.010
 2839SOL     OW 8529   4.106   0.700   2.342
 2839SOL    HW1 8530   4.151   0.610   2.339
 2839SOL    HW2 8531   4.012   0.689   2.375
 2840SOL     OW 8532   4.338   0.122   1.979
 2840SOL    HW1 8533   4.436   0.100   1.986
 2840SOL    HW2 8534   4.307   0.105   1.886
 2841SOL     OW 8535   4.505   0.264   3.611
 2841SOL    HW1 8536   4.572   0.203   3.654
 2841SOL    HW2 8537   4.432   0.283   3.676
 2842SOL     OW 8538   4.527   1.402   2.786
 2842SOL    HW1 8539   4.617   1.416   2.744
 2842SOL    HW2 8540   4.456   1.404   2.715
 2843SOL     OW 8541   4.646   0.503   2.761
 2843SOL    HW1 8542   4.621   0.494   2.665
 2843SOL    HW2 8543   4.694   0.421   2.792
 2844SOL     OW 8544   4.263   0.064   2.374
 2844SOL    HW1 8545   4.182   0.065   2.432
 2844SOL    HW2 8546   4.266   0.147   2.319
 2845SOL     OW 8547   4.021   0.035   2.033
 2845SOL    HW1 8548   4.070   0.119   2.012
 2845SOL    HW2 8549   4.083  -0.030   2.078
 2846SOL     OW 8550   4.951   1.570   2.655
 2846SOL    HW1 8551   4.972   1.644   2.590
 2846SOL    HW2 8552   5.019   1.570   2.728
 2847SOL     OW 8553   4.183   1.152   2.603
 2847SOL    HW1 8554   4.112   1.125   2.668
 2847SOL    HW2 8555   4.157   1.124   2.510
 2848SOL     OW 8556   3.802   0.556   3.248
 2848SOL    HW1 8557   3.894   0.555   3.207
 2848SOL    HW2 8558   3.796   0.630   3.315
 2849SOL     OW 8559   4.285   0.222   3.009
 2849SOL    HW1 8560   4.323   0.138   3.046
 2849SOL    HW2 8561   4.197   0.241   3.053
 2850SOL     OW 8562   4.212   1.385   2.036
 2850SOL    HW1 8563   4.125   1.370   2.083
 2850SOL    HW2 8564   4.195   1.411   1.941
 2851SOL     OW 8565   4.251   0.256   2.190
 2851SOL    HW1 8566   4.278   0.197   2.115
 2851SOL    HW2 8567   4.251   0.351   2.159
 2852SOL     OW 8568   4.639   0.089   3.264
 2852SOL    HW1 8569   4.664   0.069   3.169
 2852SOL    HW2 8570   4.711   0.145   3.306
 2853SOL     OW 8571   4.429   1.050   2.230
 2853SOL    HW1 8572   4.415   1.057   2.329
 2853SOL    HW2 8573   4.513   0.999   2.212
 2854SOL     OW 8574   4.134   0.813   3.113
 2854SOL    HW1 8575   4.220   0.825   3.163
 2854SOL    HW2 8576   4.092   0.726   3.140
 2855SOL     OW 8577   3.788   1.564   3.193
 2855SOL    HW1 8578   3.742   1.646   3.159
 2855SOL    HW2 8579   3.886   1.583   3.202
 2856SOL     OW 8580   4.091   1.100   2.363
 2856SOL    HW1 8581   4.084   1.183   2.307
 2856SOL    HW2 8582   4.095   1.020   2.303
 2857SOL     OW 8583   4.290   0.537   2.727
 2857SOL    HW1 8584   4.302   0.603   2.653
 2857SOL    HW2 8585   4.336   0.571   2.810
 2858SOL     OW 8586   4.078   1.510   3.191
 2858SOL    HW1 8587   4.057   1.466   3.104
 2858SOL    HW2 8588   4.175   1.536   3.194
 2859SOL     OW 8589   4.126   0.751   3.460
 2859SOL    HW1 8590   4.194   0.806   3.413
 2859SOL    HW2 8591   4.166   0.663   3.487
 2860SOL     OW 8592   4.228   0.050   3.602
 2860SOL    HW1 8593   4.186  -0.007   3.532
 2860SOL    HW2 8594   4.162   0.119   3.634
 2861SOL     OW 8595   4.297   0.870   2.891
 2861SOL    HW1 8596   4.341   0.959   2.882
 2861SOL    HW2 8597   4.234   0.870   2.968
 2862SOL     OW 8598   4.933   0.525   2.137
 2862SOL    HW1 8599   4.946   0.441   2.191
 2862SOL    HW2 8600   4.904   0.599   2.197
 2863SOL     OW 8601   4.031   0.213   3.093
 2863SOL    HW1 8602   4.008   0.250   3.183
 2863SOL    HW2 8603   4.001   0.118   3.087
 2864SOL     OW 8604   3.761   1.310   3.144
 2864SOL    HW1 8605   3.814   1.261   3.212
 2864SOL    HW2 8606   3.783   1.408   3.149
 2865SOL     OW 8607   4.456   0.634   2.926
 2865SOL    HW1 8608   4.515   0.608   2.850
 2865SOL    HW2 8609   4.428   0.730   2.915
 2866SOL     OW 8610   4.031   0.063   2.480
 2866SOL    HW1 8611   4.020   0.157   2.513
 2866SOL    HW2 8612   4.026   0.000   2.557
 2867SOL     OW 8613   4.747   0.766   2.828
 2867SOL    HW1 8614   4.762   0.787   2.924
 2867SOL    HW2 8615   4.717   0.671   2.819
 2868SOL     OW 8616   4.704   1.573   3.562
 2868SOL    HW1 8617   4.684   1.617   3.474
 2868SOL    HW2 8618   4.743   1.482   3.546
 2869SOL     OW 8619   4.074   0.898   3.666
 2869SOL    HW1 8620   4.150   0.942   3.714
 2869SOL    HW2 8621   4.109   0.851   3.584
 2870SOL     OW 8622   4.043   0.810   2.811
 2870SOL    HW1 8623   4.136   0.846   2.816
 2870SOL    HW2 8624   4.037   0.725   2.863
 2871SOL     OW 8625   4.063   0.509   2.868
 2871SOL    HW1 8626   4.011   0.426   2.851
 2871SOL    HW2 8627   4.140   0.514   2.804
 2872SOL     OW 8628   3.732   1.326   2.062
 2872SOL    HW1 8629   3.639   1.347   2.031
 2872SOL    HW2 8630   3.742   1.227   2.075
 2873SOL     OW 8631   3.812   1.801   2.789
 2873SOL    HW1 8632   3.770   1.715   2.762
 2873SOL    HW2 8633   3.906   1.804   2.755
 2874SOL     OW 8634   4.228   1.568   2.772
 2874SOL    HW1 8635   4.294   1.642   2.781
 2874SOL    HW2 8636   4.272   1.489   2.730
 2875SOL     OW 8637   4.726   0.796   3.100
 2875SOL    HW1 8638   4.767   0.764   3.186
 2875SOL    HW2 8639   4.630   0.769   3.097
 2876SOL     OW 8640   3.764   0.544   2.976
 2876SOL    HW1 8641   3.849   0.511   2.935
 2876SOL    HW2 8642   3.777   0.559   3.074
 2877SOL     OW 8643   3.913   0.520   3.584
 2877SOL    HW1 8644   3.972   0.480   3.514
 2877SOL    HW2 8645   3.855   0.591   3.543
 2878SOL     OW 8646   4.539   0.572   2.187
 2878SOL    HW1 8647   4.546   0.483   2.141
 2878SOL    HW2 8648   4.445   0.606   2.179
 2879SOL     OW 8649   3.976   1.564   3.606
 2879SOL    HW1 8650   3.946   1.621   3.682
 2879SOL    HW2 8651   3.969   1.467   3.632
 2880SOL     OW 8652   4.395   0.464   3.131
 2880SOL    HW1 8653   4.361   0.375   3.101
 2880SOL    HW2 8654   4.421   0.518   3.051
 2881SOL     OW 8655   4.197   0.500   2.053
 2881SOL    HW1 8656   4.258   0.580   2.057
 2881SOL    HW2 8657   4.102   0.531   2.060
 2882SOL     OW 8658   3.883   1.137   3.328
 2882SOL    HW1 8659   3.905   1.076   3.404
 2882SOL    HW2 8660   3.893   1.088   3.242
 2883SOL     OW 8661   3.807   1.258   2.884
 2883SOL    HW1 8662   3.802   1.257   2.984
 2883SOL    HW2 8663   3.724   1.217   2.846
 2884SOL     OW 8664   4.412   1.662   3.578
 2884SOL    HW1 8665   4.356   1.743   3.587
 2884SOL    HW2 8666   4.464   1.666   3.492
 2885SOL     OW 8667   4.627   0.086   1.995
 2885SOL    HW1 8668   4.678   0.087   1.909
 2885SOL    HW2 8669   4.683   0.044   2.066
 2886SOL     OW 8670   3.854   1.794   3.713
 2886SOL    HW1 8671   3.813   1.720   3.766
 2886SOL    HW2 8672   3.918   1.845   3.771
 2887SOL     OW 8673   4.554   1.273   3.284
 2887SOL    HW1 8674   4.549   1.306   3.379
 2887SOL    HW2 8675   4.468   1.292   3.238
 2888SOL     OW 8676   4.396   1.616   2.016
 2888SOL    HW1 8677   4.405   1.626   1.917
 2888SOL    HW2 8678   4.356   1.527   2.037
 2889SOL     OW 8679   3.987   0.326   2.582
 2889SOL    HW1 8680   3.908   0.377   2.548
 2889SOL    HW2 8681   3.978   0.311   2.680
 2890SOL     OW 8682   4.546   1.002   3.234
 2890SOL    HW1 8683   4.586   1.001   3.142
 2890SOL    HW2 8684   4.556   1.094   3.274
 2891SOL     OW 8685   4.096   1.288   3.352
 2891SOL    HW1 8686   4.083   1.381   3.318
 2891SOL    HW2 8687   4.012   1.236   3.339
 2892SOL     OW 8688   4.314   1.487   2.353
 2892SOL    HW1 8689   4.356   1.429   2.283
 2892SOL    HW2 8690   4.270   1.566   2.309
 2893SOL     OW 8691   3.979   1.348   2.152
 2893SOL    HW1 8692   3.883   1.349   2.125
 2893SOL    HW2 8693   3.991   1.401   2.236
 2894SOL     OW 8694   3.829   1.013   3.588
 2894SOL    HW1 8695   3.752   0.980   3.642
 2894SOL    HW2 8696   3.914   0.983   3.630
 2895SOL     OW 8697   4.396   0.203   3.351
 2895SOL    HW1 8698   4.486   0.187   3.311
 2895SOL    HW2 8699   4.404   0.208   3.450
 2896SOL     OW 8700   3.799   0.345   1.895
 2896SOL    HW1 8701   3.707   0.317   1.866
 2896SOL    HW2 8702   3.830   0.422   1.839
 2897SOL     OW 8703   3.796   0.166   2.180
 2897SOL    HW1 8704   3.779   0.249   2.126
 2897SOL    HW2 8705   3.886   0.129   2.158
 2898SOL     OW 8706   4.337   0.842   3.293
 2898SOL    HW1 8707   4.393   0.923   3.276
 2898SOL    HW2 8708   4.396   0.762   3.296
 2899SOL     OW 8709   4.440   0.565   3.570
 2899SOL    HW1 8710   4.459   0.630   3.644
 2899SOL    HW2 8711   4.500   0.485   3.579
 2900SOL     OW 8712   4.114   1.741   3.422
 2900SOL    HW1 8713   4.023   1.782   3.420
 2900SOL    HW2 8714   4.107   1.647   3.454
 2901SOL     OW 8715   4.949   0.325   2.311
 2901SOL    HW1 8716   5.014   0.251   2.300
 2901SOL    HW2 8717   4.969   0.375   2.395
 2902SOL     OW 8718   4.318   0.745   2.514
 2902SOL    HW1 8719   4.368   0.830   2.495
 2902SOL    HW2 8720   4.230   0.747   2.466
 2903SOL     OW 8721   4.385   1.790   2.815
 2903SOL    HW1 8722   4.339   1.878   2.802
 2903SOL    HW2 8723   4.484   1.802   2.808
 2904SOL     OW 8724   4.583   0.956   2.723
 2904SOL    HW1 8725   4.637   0.887   2.771
 2904SOL    HW2 8726   4.551   1.025   2.789
 2905SOL     OW 8727   3.945   1.314   3.706
 2905SOL    HW1 8728   3.880   1.241   3.685
 2905SOL    HW2 8729   3.949   1.328   3.804
 2906SOL     OW 8730   3.803   1.240   2.515
 2906SOL    HW1 8731   3.802   1.193   2.603
 2906SOL    HW2 8732   3.885   1.212   2.464
 2907SOL     OW 8733   4.396   1.391   3.486
 2907SOL    HW1 8734   4.318   1.341   3.524
 2907SOL    HW2 8735   4.393   1.486   3.517
 2908SOL     OW 8736   4.152   0.424   2.382
 2908SOL    HW1 8737   4.182   0.352   2.320
 2908SOL    HW2 8738   4.113   0.384   2.465
 2909SOL     OW 8739   4.041   0.547   3.142
 2909SOL    HW1 8740   4.079   0.488   3.214
 2909SOL    HW2 8741   4.081   0.521   3.054
 2910SOL     OW 8742   4.536   1.586   2.549
 2910SOL    HW1 8743   4.568   1.596   2.455
 2910SOL    HW2 8744   4.457   1.524   2.551
 2911SOL     OW 8745   4.494   1.330   2.163
 2911SOL    HW1 8746   4.448   1.243   2.180
 2911SOL    HW2 8747   4.585   1.327   2.204
 2912SOL     OW 8748   4.342   1.567   3.146
 2912SOL    HW1 8749   4.337   1.649   3.203
 2912SOL    HW2 8750   4.431   1.564   3.101
 2913SOL     OW 8751   3.763   1.077   2.162
 2913SOL    HW1 8752   3.862   1.066   2.153
 2913SOL    HW2 8753   3.723   0.991   2.194
 2914SOL     OW 8754   4.599   1.646   2.199
 2914SOL    HW1 8755   4.522   1.611   2.145
 2914SOL    HW2 8756   4.567   1.717   2.261
 2915SOL     OW 8757   3.954   0.628   3.837
 2915SOL    HW1 8758   3.861   0.626   3.874
 2915SOL    HW2 8759   3.955   0.589   3.745
 2916SOL     OW 8760   3.949   0.275   4.720
 2916SOL    HW1 8761   3.984   0.258   4.812
 2916SOL    HW2 8762   3.861   0.230   4.708
 2917SOL     OW 8763   3.743   0.368   4.371
 2917SOL    HW1 8764   3.661   0.411   4.410
 2917SOL    HW2 8765   3.715   0.295   4.308
 2918SOL     OW 8766   4.492   1.144   4.747
 2918SOL    HW1 8767   4.414   1.161   4.807
 2918SOL    HW2 8768   4.526   1.231   4.711
 2919SOL     OW 8769   4.409   1.012   4.389
 2919SOL    HW1 8770   4.478   0.996   4.459
 2919SOL    HW2 8771   4.336   1.069   4.427
 2920SOL     OW 8772   3.955   1.713   4.207
 2920SOL    HW1 8773   3.989   1.790   4.261
 2920SOL    HW2 8774   3.999   1.713   4.117
 2921SOL     OW 8775   3.954   1.434   4.262
 2921SOL    HW1 8776   3.928   1.530   4.262
 2921SOL    HW2 8777   3.883   1.380   4.307
 2922SOL     OW 8778   3.964   1.091   4.610
 2922SOL    HW1 8779   3.978   1.007   4.662
 2922SOL    HW2 8780   3.909   1.155   4.665
 2923SOL     OW 8781   4.330   0.964   3.847
 2923SOL    HW1 8782   4.337   1.048   3.793
 2923SOL    HW2 8783   4.376   0.977   3.935
 2924SOL     OW 8784   3.846   0.643   4.287
 2924SOL    HW1 8785   3.801   0.555   4.304
 2924SOL    HW2 8786   3.845   0.697   4.371
 2925SOL     OW 8787   3.751   1.596   3.841
 2925SOL    HW1 8788   3.732   1.500   3.862
 2925SOL    HW2 8789   3.718   1.654   3.916
 2926SOL     OW 8790   4.337   1.365   4.450
 2926SOL    HW1 8791   4.288   1.278   4.459
 2926SOL    HW2 8792   4.314   1.408   4.363
 2927SOL     OW 8793   4.533   0.004   4.226
 2927SOL    HW1 8794   4.573   0.095   4.217
 2927SOL    HW2 8795   4.433   0.012   4.232
 2928SOL     OW 8796   4.322   0.729   3.994
 2928SOL    HW1 8797   4.346   0.798   3.926
 2928SOL    HW2 8798   4.244   0.762   4.048
 2929SOL     OW 8799   3.800   0.811   4.513
 2929SOL    HW1 8800   3.899   0.799   4.522
 2929SOL    HW2 8801   3.776   0.906   4.534
 2930SOL     OW 8802   4.589   0.348   3.919
 2930SOL    HW1 8803   4.648   0.411   3.870
 2930SOL    HW2 8804   4.608   0.254   3.890
 2931SOL     OW 8805   4.732   1.456   4.201
 2931SOL    HW1 8806   4.686   1.528   4.149
 2931SOL    HW2 8807   4.728   1.476   4.299
 2932SOL     OW 8808   4.075   1.801   4.577
 2932SOL    HW1 8809   4.125   1.715   4.583
 2932SOL    HW2 8810   4.140   1.878   4.574
 2933SOL     OW 8811   4.045   0.943   3.966
 2933SOL    HW1 8812   4.127   0.982   3.924
 2933SOL    HW2 8813   4.018   0.861   3.917
 2934SOL     OW 8814   4.188   1.743   4.047
 2934SOL    HW1 8815   4.221   1.782   4.133
 2934SOL    HW2 8816   4.264   1.736   3.982
 2935SOL     OW 8817   4.106   0.700   4.204
 2935SOL    HW1 8818   4.151   0.610   4.201
 2935SOL    HW2 8819   4.012   0.689   4.237
 2936SOL     OW 8820   4.338   0.122   3.841
 2936SOL    HW1 8821   4.436   0.100   3.848
 2936SOL    HW2 8822   4.307   0.105   3.748
 2937SOL     OW 8823   4.527   1.402   4.648
 2937SOL    HW1 8824   4.617   1.416   4.606
 2937SOL    HW2 8825   4.456   1.404   4.577
 2938SOL     OW 8826   4.263   0.064   4.236
 2938SOL    HW1 8827   4.182   0.065   4.294
 2938SOL    HW2 8828   4.266   0.147   4.181
 2939SOL     OW 8829   4.021   0.035   3.895
 2939SOL    HW1 8830   4.070   0.119   3.874
 2939SOL    HW2 8831   4.083  -0.030   3.940
 2940SOL     OW 8832   4.951   1.570   4.517
 2940SOL    HW1 8833   4.972   1.644   4.452
 2940SOL    HW2 8834   5.019   1.570   4.590
 2941SOL     OW 8835   4.183   1.152   4.465
 2941SOL    HW1 8836   4.112   1.125   4.530
 2941SOL    HW2 8837   4.157   1.124   4.372
 2942SOL     OW 8838   4.212   1.385   3.898
 2942SOL    HW1 8839   4.125   1.370   3.945
 2942SOL    HW2 8840   4.195   1.411   3.803
 2943SOL     OW 8841   4.251   0.256   4.052
 2943SOL    HW1 8842   4.278   0.197   3.977
 2943SOL    HW2 8843   4.251   0.351   4.021
 2944SOL     OW 8844   4.429   1.050   4.092
 2944SOL    HW1 8845   4.415   1.057   4.191
 2944SOL    HW2 8846   4.513   0.999   4.074
 2945SOL     OW 8847   4.091   1.100   4.225
 2945SOL    HW1 8848   4.084   1.183   4.169
 2945SOL    HW2 8849   4.095   1.020   4.165
 2946SOL     OW 8850   4.290   0.537   4.589
 2946SOL    HW1 8851   4.302   0.603   4.515
 2946SOL    HW2 8852   4.336   0.571   4.672
 2947SOL     OW 8853   4.933   0.525   3.999
 2947SOL    HW1 8854   4.946   0.441   4.053
 2947SOL    HW2 8855   4.904   0.599   4.059
 2948SOL     OW 8856   4.456   0.634   4.788
 2948SOL    HW1 8857   4.515   0.608   4.712
 2948SOL    HW2 8858   4.428   0.730   4.777
 2949SOL     OW 8859   4.031   0.063   4.342
 2949SOL    HW1 8860   4.020   0.157   4.375
 2949SOL    HW2 8861   4.026   0.000   4.419
 2950SOL     OW 8862   4.747   0.766   4.690
 2950SOL    HW1 8863   4.762   0.787   4.786
 2950SOL    HW2 8864   4.717   0.671   4.681
 2951SOL     OW 8865   4.043   0.810   4.673
 2951SOL    HW1 8866   4.136   0.846   4.678
 2951SOL    HW2 8867   4.037   0.725   4.725
 2952SOL     OW 8868   3.732   1.326   3.924
 2952SOL    HW1 8869   3.639   1.347   3.893
 2952SOL    HW2 8870   3.742   1.227   3.937
 2953SOL     OW 8871   3.812   1.801   4.651
 2953SOL    HW1 8872   3.770   1.715   4.624
 2953SOL    HW2 8873   3.906   1.804   4.617
 2954SOL     OW 8874   4.228   1.568   4.634
 2954SOL    HW1 8875   4.294   1.642   4.643
 2954SOL    HW2 8876   4.272   1.489   4.592
 2955SOL     OW 8877   4.726   0.796   4.962
 2955SOL    HW1 8878   4.767   0.764   5.048
 2955SOL    HW2 8879   4.630   0.769   4.959
 2956SOL     OW 8880   4.539   0.572   4.049
 2956SOL    HW1 8881   4.546   0.483   4.003
 2956SOL    HW2 8882   4.445   0.606   4.041
 2957SOL     OW 8883   4.197   0.500   3.915
 2957SOL    HW1 8884   4.258   0.580   3.919
 2957SOL    HW2 8885   4.102   0.531   3.922
 2958SOL     OW 8886   4.627   0.086   3.857
 2958SOL    HW1 8887   4.678   0.087   3.771
 2958SOL    HW2 8888   4.683   0.044   3.928
 2959SOL     OW 8889   4.396   1.616   3.878
 2959SOL    HW1 8890   4.405   1.626   3.779
 2959SOL    HW2 8891   4.356   1.527   3.899
 2960SOL     OW 8892   3.987   0.326   4.444
 2960SOL    HW1 8893   3.908   0.377   4.410
 2960SOL    HW2 8894   3.978   0.311   4.542
 2961SOL     OW 8895   4.314   1.487   4.215
 2961SOL    HW1 8896   4.356   1.429   4.145
 2961SOL    HW2 8897   4.270   1.566   4.171
 2962SOL     OW 8898   3.979   1.348   4.014
 2962SOL    HW1 8899   3.883   1.349   3.987
 2962SOL    HW2 8900   3.991   1.401   4.098
 2963SOL     OW 8901   3.799   0.345   3.757
 2963SOL    HW1 8902   3.707   0.317   3.728
 2963SOL    HW2 8903   3.830   0.422   3.701
 2964SOL     OW 8904   3.796   0.166   4.042
 2964SOL    HW1 8905   3.779   0.249   3.988
 2964SOL    HW2 8906   3.886   0.129   4.020
 2965SOL     OW 8907   4.949   0.325   4.173
 2965SOL    HW1 8908   5.014   0.251   4.162
 2965SOL    HW2 8909   4.969   0.375   4.257
 2966SOL     OW 8910   4.318   0.745   4.376
 2966SOL    HW1 8911   4.368   0.830   4.357
 2966SOL    HW2 8912   4.230   0.747   4.328
 2967SOL     OW 8913   4.385   1.790   4.677
 2967SOL    HW1 8914   4.339   1.878   4.664
 2967SOL    HW2 8915   4.484   1.802   4.670
 2968SOL     OW 8916   4.583   0.956   4.585
 2968SOL    HW1 8917   4.637   0.887   4.633
 2968SOL    HW2 8918   4.551   1.025   4.651
 2969SOL     OW 8919   3.803   1.240   4.377
 2969SOL    HW1 8920   3.802   1.193   4.465
 2969SOL    HW2 8921   3.885   1.212   4.326
 2970SOL     OW 8922   4.152   0.424   4.244
 2970SOL    HW1 8923   4.182   0.352   4.182
 2970SOL    HW2 8924   4.113   0.384   4.327
 2971SOL     OW 8925   4.536   1.586   4.411
 2971SOL    HW1 8926   4.568   1.596   4.317
 2971SOL    HW2 8927   4.457   1.524   4.413
 2972SOL     OW 8928   4.494   1.330   4.025
 2972SOL    HW1 8929   4.448   1.243   4.042
 2972SOL    HW2 8930   4.585   1.327   4.066
 2973SOL     OW 8931   3.763   1.077   4.024
 2973SOL    HW1 8932   3.862   1.066   4.015
 2973SOL    HW2 8933   3.723   0.991   4.056
 2974SOL     OW 8934   4.599   1.646   4.061
 2974SOL    HW1 8935   4.522   1.611   4.007
 2974SOL    HW2 8936   4.567   1.717   4.123
 2975SOL     OW 8937   3.954   2.490   0.113
 2975SOL    HW1 8938   3.861   2.488   0.150
 2975SOL    HW2 8939   3.955   2.451   0.021
 2976SOL     OW 8940   3.949   2.137   0.996
 2976SOL    HW1 8941   3.984   2.120   1.088
 2976SOL    HW2 8942   3.861   2.092   0.984
 2977SOL     OW 8943   3.743   2.230   0.647
 2977SOL    HW1 8944   3.661   2.273   0.686
 2977SOL    HW2 8945   3.715   2.157   0.584
 2978SOL     OW 8946   4.293   3.137   1.165
 2978SOL    HW1 8947   4.200   3.130   1.128
 2978SOL    HW2 8948   4.304   3.226   1.209
 2979SOL     OW 8949   4.492   3.006   1.023
 2979SOL    HW1 8950   4.414   3.023   1.083
 2979SOL    HW2 8951   4.526   3.093   0.987
 2980SOL     OW 8952   4.574   2.660   1.823
 2980SOL    HW1 8953   4.570   2.736   1.888
 2980SOL    HW2 8954   4.596   2.696   1.732
 2981SOL     OW 8955   4.409   2.874   0.665
 2981SOL    HW1 8956   4.478   2.858   0.735
 2981SOL    HW2 8957   4.336   2.931   0.703
 2982SOL     OW 8958   4.410   3.023   1.803
 2982SOL    HW1 8959   4.470   3.102   1.817
 2982SOL    HW2 8960   4.324   3.054   1.762
 2983SOL     OW 8961   4.059   3.297   1.061
 2983SOL    HW1 8962   3.981   3.266   1.008
 2983SOL    HW2 8963   4.117   3.355   1.004
 2984SOL     OW 8964   4.162   2.254   1.499
 2984SOL    HW1 8965   4.244   2.198   1.508
 2984SOL    HW2 8966   4.081   2.196   1.503
 2985SOL     OW 8967   3.955   3.575   0.483
 2985SOL    HW1 8968   3.989   3.652   0.537
 2985SOL    HW2 8969   3.999   3.575   0.393
 2986SOL     OW 8970   3.954   3.296   0.538
 2986SOL    HW1 8971   3.928   3.392   0.538
 2986SOL    HW2 8972   3.883   3.242   0.583
 2987SOL     OW 8973   3.964   2.953   0.886
 2987SOL    HW1 8974   3.978   2.869   0.938
 2987SOL    HW2 8975   3.909   3.017   0.941
 2988SOL     OW 8976   4.344   3.648   1.439
 2988SOL    HW1 8977   4.252   3.631   1.474
 2988SOL    HW2 8978   4.372   3.740   1.465
 2989SOL     OW 8979   4.330   2.826   0.123
 2989SOL    HW1 8980   4.337   2.910   0.069
 2989SOL    HW2 8981   4.376   2.839   0.211
 2990SOL     OW 8982   3.846   2.505   0.563
 2990SOL    HW1 8983   3.801   2.417   0.580
 2990SOL    HW2 8984   3.845   2.559   0.647
 2991SOL     OW 8985   3.837   2.599   1.597
 2991SOL    HW1 8986   3.925   2.586   1.642
 2991SOL    HW2 8987   3.824   2.696   1.575
 2992SOL     OW 8988   4.337   3.227   0.726
 2992SOL    HW1 8989   4.288   3.140   0.735
 2992SOL    HW2 8990   4.314   3.270   0.639
 2993SOL     OW 8991   4.533   1.866   0.502
 2993SOL    HW1 8992   4.573   1.957   0.493
 2993SOL    HW2 8993   4.433   1.874   0.508
 2994SOL     OW 8994   3.921   2.838   1.264
 2994SOL    HW1 8995   4.010   2.793   1.250
 2994SOL    HW2 8996   3.848   2.773   1.245
 2995SOL     OW 8997   4.041   2.113   1.801
 2995SOL    HW1 8998   4.112   2.184   1.807
 2995SOL    HW2 8999   3.953   2.152   1.829
 2996SOL     OW 9000   4.322   2.591   0.270
 2996SOL    HW1 9001   4.346   2.660   0.202
 2996SOL    HW2 9002   4.244   2.624   0.324
 2997SOL     OW 9003   4.531   2.467   1.465
 2997SOL    HW1 9004   4.484   2.464   1.554
 2997SOL    HW2 9005   4.480   2.412   1.399
 2998SOL     OW 9006   4.715   2.272   1.242
 2998SOL    HW1 9007   4.638   2.306   1.296
 2998SOL    HW2 9008   4.681   2.221   1.163
 2999SOL     OW 9009   3.800   2.673   0.789
 2999SOL    HW1 9010   3.899   2.661   0.798
 2999SOL    HW2 9011   3.776   2.768   0.810
 3000SOL     OW 9012   3.854   3.683   1.571
 3000SOL    HW1 9013   3.844   3.668   1.670
 3000SOL    HW2 9014   3.768   3.719   1.535
 3001SOL     OW 9015   4.589   2.210   0.195
 3001SOL    HW1 9016   4.648   2.273   0.146
 3001SOL    HW2 9017   4.608   2.116   0.166
 3002SOL     OW 9018   4.274   2.058   0.885
 3002SOL    HW1 9019   4.269   2.053   0.985
 3002SOL    HW2 9020   4.276   2.154   0.856
 3003SOL     OW 9021   4.732   3.318   0.477
 3003SOL    HW1 9022   4.686   3.390   0.425
 3003SOL    HW2 9023   4.728   3.338   0.575
 3004SOL     OW 9024   4.075   3.663   0.853
 3004SOL    HW1 9025   4.125   3.577   0.859
 3004SOL    HW2 9026   4.140   3.740   0.850
 3005SOL     OW 9027   4.045   2.805   0.242
 3005SOL    HW1 9028   4.127   2.844   0.200
 3005SOL    HW2 9029   4.018   2.723   0.193
 3006SOL     OW 9030   4.185   3.128   1.727
 3006SOL    HW1 9031   4.135   3.129   1.641
 3006SOL    HW2 9032   4.122   3.110   1.803
 3007SOL     OW 9033   3.926   2.147   1.498
 3007SOL    HW1 9034   3.846   2.207   1.485
 3007SOL    HW2 9035   3.916   2.098   1.584
 3008SOL     OW 9036   4.188   3.605   0.323
 3008SOL    HW1 9037   4.221   3.644   0.409
 3008SOL    HW2 9038   4.264   3.598   0.258
 3009SOL     OW 9039   3.973   3.647   1.241
 3009SOL    HW1 9040   4.030   3.582   1.291
 3009SOL    HW2 9041   3.957   3.614   1.148
 3010SOL     OW 9042   4.106   2.562   0.480
 3010SOL    HW1 9043   4.151   2.472   0.477
 3010SOL    HW2 9044   4.012   2.551   0.513
 3011SOL     OW 9045   4.505   2.126   1.749
 3011SOL    HW1 9046   4.572   2.065   1.792
 3011SOL    HW2 9047   4.432   2.145   1.814
 3012SOL     OW 9048   4.527   3.264   0.924
 3012SOL    HW1 9049   4.617   3.278   0.882
 3012SOL    HW2 9050   4.456   3.266   0.853
 3013SOL     OW 9051   4.646   2.365   0.899
 3013SOL    HW1 9052   4.621   2.356   0.803
 3013SOL    HW2 9053   4.694   2.283   0.930
 3014SOL     OW 9054   4.263   1.926   0.512
 3014SOL    HW1 9055   4.182   1.927   0.570
 3014SOL    HW2 9056   4.266   2.009   0.457
 3015SOL     OW 9057   4.021   1.897   0.171
 3015SOL    HW1 9058   4.070   1.981   0.150
 3015SOL    HW2 9059   4.083   1.832   0.216
 3016SOL     OW 9060   4.951   3.432   0.793
 3016SOL    HW1 9061   4.972   3.506   0.728
 3016SOL    HW2 9062   5.019   3.432   0.866
 3017SOL     OW 9063   4.183   3.014   0.741
 3017SOL    HW1 9064   4.112   2.987   0.806
 3017SOL    HW2 9065   4.157   2.986   0.648
 3018SOL     OW 9066   3.802   2.418   1.386
 3018SOL    HW1 9067   3.894   2.417   1.345
 3018SOL    HW2 9068   3.796   2.492   1.453
 3019SOL     OW 9069   4.285   2.084   1.147
 3019SOL    HW1 9070   4.323   2.000   1.184
 3019SOL    HW2 9071   4.197   2.103   1.191
 3020SOL     OW 9072   4.212   3.247   0.174
 3020SOL    HW1 9073   4.125   3.232   0.221
 3020SOL    HW2 9074   4.195   3.273   0.079
 3021SOL     OW 9075   4.251   2.118   0.328
 3021SOL    HW1 9076   4.278   2.059   0.253
 3021SOL    HW2 9077   4.251   2.213   0.297
 3022SOL     OW 9078   4.639   1.951   1.402
 3022SOL    HW1 9079   4.664   1.931   1.307
 3022SOL    HW2 9080   4.711   2.007   1.444
 3023SOL     OW 9081   4.429   2.912   0.368
 3023SOL    HW1 9082   4.415   2.919   0.467
 3023SOL    HW2 9083   4.513   2.861   0.350
 3024SOL     OW 9084   4.134   2.675   1.251
 3024SOL    HW1 9085   4.220   2.687   1.301
 3024SOL    HW2 9086   4.092   2.588   1.278
 3025SOL     OW 9087   3.788   3.426   1.331
 3025SOL    HW1 9088   3.742   3.508   1.297
 3025SOL    HW2 9089   3.886   3.445   1.340
 3026SOL     OW 9090   4.091   2.962   0.501
 3026SOL    HW1 9091   4.084   3.045   0.445
 3026SOL    HW2 9092   4.095   2.882   0.441
 3027SOL     OW 9093   4.290   2.399   0.865
 3027SOL    HW1 9094   4.302   2.465   0.791
 3027SOL    HW2 9095   4.336   2.433   0.948
 3028SOL     OW 9096   4.078   3.372   1.329
 3028SOL    HW1 9097   4.057   3.328   1.242
 3028SOL    HW2 9098   4.175   3.398   1.332
 3029SOL     OW 9099   4.126   2.613   1.598
 3029SOL    HW1 9100   4.194   2.668   1.551
 3029SOL    HW2 9101   4.166   2.525   1.625
 3030SOL     OW 9102   4.228   1.912   1.740
 3030SOL    HW1 9103   4.186   1.855   1.670
 3030SOL    HW2 9104   4.162   1.981   1.772
 3031SOL     OW 9105   4.297   2.732   1.029
 3031SOL    HW1 9106   4.341   2.821   1.020
 3031SOL    HW2 9107   4.234   2.732   1.106
 3032SOL     OW 9108   4.933   2.387   0.275
 3032SOL    HW1 9109   4.946   2.303   0.329
 3032SOL    HW2 9110   4.904   2.461   0.335
 3033SOL     OW 9111   4.031   2.075   1.231
 3033SOL    HW1 9112   4.008   2.112   1.321
 3033SOL    HW2 9113   4.001   1.980   1.225
 3034SOL     OW 9114   3.761   3.172   1.282
 3034SOL    HW1 9115   3.814   3.123   1.350
 3034SOL    HW2 9116   3.783   3.270   1.287
 3035SOL     OW 9117   4.456   2.496   1.064
 3035SOL    HW1 9118   4.515   2.470   0.988
 3035SOL    HW2 9119   4.428   2.592   1.053
 3036SOL     OW 9120   4.031   1.925   0.618
 3036SOL    HW1 9121   4.020   2.019   0.651
 3036SOL    HW2 9122   4.026   1.862   0.695
 3037SOL     OW 9123   4.747   2.628   0.966
 3037SOL    HW1 9124   4.762   2.649   1.062
 3037SOL    HW2 9125   4.717   2.533   0.957
 3038SOL     OW 9126   4.704   3.435   1.700
 3038SOL    HW1 9127   4.684   3.479   1.612
 3038SOL    HW2 9128   4.743   3.344   1.684
 3039SOL     OW 9129   4.074   2.760   1.804
 3039SOL    HW1 9130   4.150   2.804   1.852
 3039SOL    HW2 9131   4.109   2.713   1.722
 3040SOL     OW 9132   4.043   2.672   0.949
 3040SOL    HW1 9133   4.136   2.708   0.954
 3040SOL    HW2 9134   4.037   2.587   1.001
 3041SOL     OW 9135   4.063   2.371   1.006
 3041SOL    HW1 9136   4.011   2.288   0.989
 3041SOL    HW2 9137   4.140   2.376   0.942
 3042SOL     OW 9138   3.732   3.188   0.200
 3042SOL    HW1 9139   3.639   3.209   0.169
 3042SOL    HW2 9140   3.742   3.089   0.213
 3043SOL     OW 9141   3.812   3.663   0.927
 3043SOL    HW1 9142   3.770   3.577   0.900
 3043SOL    HW2 9143   3.906   3.666   0.893
 3044SOL     OW 9144   4.228   3.430   0.910
 3044SOL    HW1 9145   4.294   3.504   0.919
 3044SOL    HW2 9146   4.272   3.351   0.868
 3045SOL     OW 9147   4.726   2.658   1.238
 3045SOL    HW1 9148   4.767   2.626   1.324
 3045SOL    HW2 9149   4.630   2.631   1.235
 3046SOL     OW 9150   3.764   2.406   1.114
 3046SOL    HW1 9151   3.849   2.373   1.073
 3046SOL    HW2 9152   3.777   2.421   1.212
 3047SOL     OW 9153   3.913   2.382   1.722
 3047SOL    HW1 9154   3.972   2.342   1.652
 3047SOL    HW2 9155   3.855   2.453   1.681
 3048SOL     OW 9156   4.539   2.434   0.325
 3048SOL    HW1 9157   4.546   2.345   0.279
 3048SOL    HW2 9158   4.445   2.468   0.317
 3049SOL     OW 9159   3.976   3.426   1.744
 3049SOL    HW1 9160   3.946   3.483   1.820
 3049SOL    HW2 9161   3.969   3.329   1.770
 3050SOL     OW 9162   4.395   2.326   1.269
 3050SOL    HW1 9163   4.361   2.237   1.239
 3050SOL    HW2 9164   4.421   2.380   1.189
 3051SOL     OW 9165   4.197   2.362   0.191
 3051SOL    HW1 9166   4.258   2.442   0.195
 3051SOL    HW2 9167   4.102   2.393   0.198
 3052SOL     OW 9168   3.883   2.999   1.466
 3052SOL    HW1 9169   3.905   2.938   1.542
 3052SOL    HW2 9170   3.893   2.950   1.380
 3053SOL     OW 9171   3.807   3.120   1.022
 3053SOL    HW1 9172   3.802   3.119   1.122
 3053SOL    HW2 9173   3.724   3.079   0.984
 3054SOL     OW 9174   4.412   3.524   1.716
 3054SOL    HW1 9175   4.356   3.605   1.725
 3054SOL    HW2 9176   4.464   3.528   1.630
 3055SOL     OW 9177   4.627   1.948   0.133
 3055SOL    HW1 9178   4.678   1.949   0.047
 3055SOL    HW2 9179   4.683   1.906   0.204
 3056SOL     OW 9180   3.854   3.656   1.851
 3056SOL    HW1 9181   3.813   3.582   1.904
 3056SOL    HW2 9182   3.918   3.707   1.909
 3057SOL     OW 9183   4.554   3.135   1.422
 3057SOL    HW1 9184   4.549   3.168   1.517
 3057SOL    HW2 9185   4.468   3.154   1.376
 3058SOL     OW 9186   4.396   3.478   0.154
 3058SOL    HW1 9187   4.405   3.488   0.055
 3058SOL    HW2 9188   4.356   3.389   0.175
 3059SOL     OW 9189   3.987   2.188   0.720
 3059SOL    HW1 9190   3.908   2.239   0.686
 3059SOL    HW2 9191   3.978   2.173   0.818
 3060SOL     OW 9192   4.918   3.474   0.031
 3060SOL    HW1 9193   4.924   3.381   0.068
 3060SOL    HW2 9194   4.859   3.474  -0.049
 3061SOL     OW 9195   4.546   2.864   1.372
 3061SOL    HW1 9196   4.586   2.863   1.280
 3061SOL    HW2 9197   4.556   2.956   1.412
 3062SOL     OW 9198   4.096   3.150   1.490
 3062SOL    HW1 9199   4.083   3.243   1.456
 3062SOL    HW2 9200   4.012   3.098   1.477
 3063SOL     OW 9201   4.314   3.349   0.491
 3063SOL    HW1 9202   4.356   3.291   0.421
 3063SOL    HW2 9203   4.270   3.428   0.447
 3064SOL     OW 9204   3.979   3.210   0.290
 3064SOL    HW1 9205   3.883   3.211   0.263
 3064SOL    HW2 9206   3.991   3.263   0.374
 3065SOL     OW 9207   3.829   2.875   1.726
 3065SOL    HW1 9208   3.752   2.842   1.780
 3065SOL    HW2 9209   3.914   2.845   1.768
 3066SOL     OW 9210   4.396   2.065   1.489
 3066SOL    HW1 9211   4.486   2.049   1.449
 3066SOL    HW2 9212   4.404   2.070   1.588
 3067SOL     OW 9213   3.796   2.028   0.318
 3067SOL    HW1 9214   3.779   2.111   0.264
 3067SOL    HW2 9215   3.886   1.991   0.296
 3068SOL     OW 9216   4.337   2.704   1.431
 3068SOL    HW1 9217   4.393   2.785   1.414
 3068SOL    HW2 9218   4.396   2.624   1.434
 3069SOL     OW 9219   4.440   2.427   1.708
 3069SOL    HW1 9220   4.459   2.492   1.782
 3069SOL    HW2 9221   4.500   2.347   1.717
 3070SOL     OW 9222   4.114   3.603   1.560
 3070SOL    HW1 9223   4.023   3.644   1.558
 3070SOL    HW2 9224   4.107   3.509   1.592
 3071SOL     OW 9225   4.949   2.187   0.449
 3071SOL    HW1 9226   5.014   2.113   0.438
 3071SOL    HW2 9227   4.969   2.237   0.533
 3072SOL     OW 9228   4.318   2.607   0.652
 3072SOL    HW1 9229   4.368   2.692   0.633
 3072SOL    HW2 9230   4.230   2.609   0.604
 3073SOL     OW 9231   4.385   3.652   0.953
 3073SOL    HW1 9232   4.339   3.740   0.940
 3073SOL    HW2 9233   4.484   3.664   0.946
 3074SOL     OW 9234   4.583   2.818   0.861
 3074SOL    HW1 9235   4.637   2.749   0.909
 3074SOL    HW2 9236   4.551   2.887   0.927
 3075SOL     OW 9237   4.807   2.846   0.087
 3075SOL    HW1 9238   4.784   2.899   0.005
 3075SOL    HW2 9239   4.888   2.790   0.068
 3076SOL     OW 9240   3.945   3.176   1.844
 3076SOL    HW1 9241   3.880   3.103   1.823
 3076SOL    HW2 9242   3.949   3.190   1.942
 3077SOL     OW 9243   3.803   3.102   0.653
 3077SOL    HW1 9244   3.802   3.055   0.741
 3077SOL    HW2 9245   3.885   3.074   0.602
 3078SOL     OW 9246   4.396   3.253   1.624
 3078SOL    HW1 9247   4.318   3.203   1.662
 3078SOL    HW2 9248   4.393   3.348   1.655
 3079SOL     OW 9249   4.152   2.286   0.520
 3079SOL    HW1 9250   4.182   2.214   0.458
 3079SOL    HW2 9251   4.113   2.246   0.603
 3080SOL     OW 9252   4.041   2.409   1.280
 3080SOL    HW1 9253   4.079   2.350   1.352
 3080SOL    HW2 9254   4.081   2.383   1.192
 3081SOL     OW 9255   4.536   3.448   0.687
 3081SOL    HW1 9256   4.568   3.458   0.593
 3081SOL    HW2 9257   4.457   3.386   0.689
 3082SOL     OW 9258   4.725   1.896   1.154
 3082SOL    HW1 9259   4.662   1.824   1.123
 3082SOL    HW2 9260   4.818   1.860   1.154
 3083SOL     OW 9261   4.494   3.192   0.301
 3083SOL    HW1 9262   4.448   3.105   0.318
 3083SOL    HW2 9263   4.585   3.189   0.342
 3084SOL     OW 9264   4.342   3.429   1.284
 3084SOL    HW1 9265   4.337   3.511   1.341
 3084SOL    HW2 9266   4.431   3.426   1.239
 3085SOL     OW 9267   3.763   2.939   0.300
 3085SOL    HW1 9268   3.862   2.928   0.291
 3085SOL    HW2 9269   3.723   2.853   0.332
 3086SOL     OW 9270   4.599   3.508   0.337
 3086SOL    HW1 9271   4.522   3.473   0.283
 3086SOL    HW2 9272   4.567   3.579   0.399
 3087SOL     OW 9273   3.954   2.490   1.975
 3087SOL    HW1 9274   3.861   2.488   2.012
 3087SOL    HW2 9275   3.955   2.451   1.883
 3088SOL     OW 9276   3.949   2.137   2.858
 3088SOL    HW1 9277   3.984   2.120   2.950
 3088SOL    HW2 9278   3.861   2.092   2.846
 3089SOL     OW 9279   3.743   2.230   2.509
 3089SOL    HW1 9280   3.661   2.273   2.548
 3089SOL    HW2 9281   3.715   2.157   2.446
 3090SOL     OW 9282   4.293   3.137   3.027
 3090SOL    HW1 9283   4.200   3.130   2.990
 3090SOL    HW2 9284   4.304   3.226   3.071
 3091SOL     OW 9285   4.492   3.006   2.885
 3091SOL    HW1 9286   4.414   3.023   2.945
 3091SOL    HW2 9287   4.526   3.093   2.849
 3092SOL     OW 9288   4.574   2.660   3.685
 3092SOL    HW1 9289   4.570   2.736   3.750
 3092SOL    HW2 9290   4.596   2.696   3.594
 3093SOL     OW 9291   4.409   2.874   2.527
 3093SOL    HW1 9292   4.478   2.858   2.597
 3093SOL    HW2 9293   4.336   2.931   2.565
 3094SOL     OW 9294   4.410   3.023   3.665
 3094SOL    HW1 9295   4.470   3.102   3.679
 3094SOL    HW2 9296   4.324   3.054   3.624
 3095SOL     OW 9297   4.059   3.297   2.923
 3095SOL    HW1 9298   3.981   3.266   2.870
 3095SOL    HW2 9299   4.117   3.355   2.866
 3096SOL     OW 9300   4.162   2.254   3.361
 3096SOL    HW1 9301   4.244   2.198   3.370
 3096SOL    HW2 9302   4.081   2.196   3.365
 3097SOL     OW 9303   3.955   3.575   2.345
 3097SOL    HW1 9304   3.989   3.652   2.399
 3097SOL    HW2 9305   3.999   3.575   2.255
 3098SOL     OW 9306   3.954   3.296   2.400
 3098SOL    HW1 9307   3.928   3.392   2.400
 3098SOL    HW2 9308   3.883   3.242   2.445
 3099SOL     OW 9309   3.964   2.953   2.748
 3099SOL    HW1 9310   3.978   2.869   2.800
 3099SOL    HW2 9311   3.909   3.017   2.803
 3100SOL     OW 9312   4.344   3.648   3.301
 3100SOL    HW1 9313   4.252   3.631   3.336
 3100SOL    HW2 9314   4.372   3.740   3.327
 3101SOL     OW 9315   4.330   2.826   1.985
 3101SOL    HW1 9316   4.337   2.910   1.931
 3101SOL    HW2 9317   4.376   2.839   2.073
 3102SOL     OW 9318   3.846   2.505   2.425
 3102SOL    HW1 9319   3.801   2.417   2.442
 3102SOL    HW2 9320   3.845   2.559   2.509
 3103SOL     OW 9321   3.751   3.458   1.979
 3103SOL    HW1 9322   3.732   3.362   2.000
 3103SOL    HW2 9323   3.718   3.516   2.054
 3104SOL     OW 9324   3.837   2.599   3.459
 3104SOL    HW1 9325   3.925   2.586   3.504
 3104SOL    HW2 9326   3.824   2.696   3.437
 3105SOL     OW 9327   4.337   3.227   2.588
 3105SOL    HW1 9328   4.288   3.140   2.597
 3105SOL    HW2 9329   4.314   3.270   2.501
 3106SOL     OW 9330   4.533   1.866   2.364
 3106SOL    HW1 9331   4.573   1.957   2.355
 3106SOL    HW2 9332   4.433   1.874   2.370
 3107SOL     OW 9333   3.921   2.838   3.126
 3107SOL    HW1 9334   4.010   2.793   3.112
 3107SOL    HW2 9335   3.848   2.773   3.107
 3108SOL     OW 9336   4.041   2.113   3.663
 3108SOL    HW1 9337   4.112   2.184   3.669
 3108SOL    HW2 9338   3.953   2.152   3.691
 3109SOL     OW 9339   4.322   2.591   2.132
 3109SOL    HW1 9340   4.346   2.660   2.064
 3109SOL    HW2 9341   4.244   2.624   2.186
 3110SOL     OW 9342   4.531   2.467   3.327
 3110SOL    HW1 9343   4.484   2.464   3.416
 3110SOL    HW2 9344   4.480   2.412   3.261
 3111SOL     OW 9345   4.715   2.272   3.104
 3111SOL    HW1 9346   4.638   2.306   3.158
 3111SOL    HW2 9347   4.681   2.221   3.025
 3112SOL     OW 9348   3.800   2.673   2.651
 3112SOL    HW1 9349   3.899   2.661   2.660
 3112SOL    HW2 9350   3.776   2.768   2.672
 3113SOL     OW 9351   3.854   3.683   3.433
 3113SOL    HW1 9352   3.844   3.668   3.532
 3113SOL    HW2 9353   3.768   3.719   3.397
 3114SOL     OW 9354   4.589   2.210   2.057
 3114SOL    HW1 9355   4.648   2.273   2.008
 3114SOL    HW2 9356   4.608   2.116   2.028
 3115SOL     OW 9357   4.274   2.058   2.747
 3115SOL    HW1 9358   4.269   2.053   2.847
 3115SOL    HW2 9359   4.276   2.154   2.718
 3116SOL     OW 9360   4.732   3.318   2.339
 3116SOL    HW1 9361   4.686   3.390   2.287
 3116SOL    HW2 9362   4.728   3.338   2.437
 3117SOL     OW 9363   4.075   3.663   2.715
 3117SOL    HW1 9364   4.125   3.577   2.721
 3117SOL    HW2 9365   4.140   3.740   2.712
 3118SOL     OW 9366   4.045   2.805   2.104
 3118SOL    HW1 9367   4.127   2.844   2.062
 3118SOL    HW2 9368   4.018   2.723   2.055
 3119SOL     OW 9369   4.185   3.128   3.589
 3119SOL    HW1 9370   4.135   3.129   3.503
 3119SOL    HW2 9371   4.122   3.110   3.665
 3120SOL     OW 9372   3.926   2.147   3.360
 3120SOL    HW1 9373   3.846   2.207   3.347
 3120SOL    HW2 9374   3.916   2.098   3.446
 3121SOL     OW 9375   4.188   3.605   2.185
 3121SOL    HW1 9376   4.221   3.644   2.271
 3121SOL    HW2 9377   4.264   3.598   2.120
 3122SOL     OW 9378   3.973   3.647   3.103
 3122SOL    HW1 9379   4.030   3.582   3.153
 3122SOL    HW2 9380   3.957   3.614   3.010
 3123SOL     OW 9381   4.106   2.562   2.342
 3123SOL    HW1 9382   4.151   2.472   2.339
 3123SOL    HW2 9383   4.012   2.551   2.375
 3124SOL     OW 9384   4.338   1.984   1.979
 3124SOL    HW1 9385   4.436   1.962   1.986
 3124SOL    HW2 9386   4.307   1.967   1.886
 3125SOL     OW 9387   4.505   2.126   3.611
 3125SOL    HW1 9388   4.572   2.065   3.654
 3125SOL    HW2 9389   4.432   2.145   3.676
 3126SOL     OW 9390   4.527   3.264   2.786
 3126SOL    HW1 9391   4.617   3.278   2.744
 3126SOL    HW2 9392   4.456   3.266   2.715
 3127SOL     OW 9393   4.646   2.365   2.761
 3127SOL    HW1 9394   4.621   2.356   2.665
 3127SOL    HW2 9395   4.694   2.283   2.792
 3128SOL     OW 9396   4.263   1.926   2.374
 3128SOL    HW1 9397   4.182   1.927   2.432
 3128SOL    HW2 9398   4.266   2.009   2.319
 3129SOL     OW 9399   4.021   1.897   2.033
 3129SOL    HW1 9400   4.070   1.981   2.012
 3129SOL    HW2 9401   4.083   1.832   2.078
 3130SOL     OW 9402   4.951   3.432   2.655
 3130SOL    HW1 9403   4.972   3.506   2.590
 3130SOL    HW2 9404   5.019   3.432   2.728
 3131SOL     OW 9405   4.183   3.014   2.603
 3131SOL    HW1 9406   4.112   2.987   2.668
 3131SOL    HW2 9407   4.157   2.986   2.510
 3132SOL     OW 9408   3.802   2.418   3.248
 3132SOL    HW1 9409   3.894   2.417   3.207
 3132SOL    HW2 9410   3.796   2.492   3.315
 3133SOL     OW 9411   4.285   2.084   3.009
 3133SOL    HW1 9412   4.323   2.000   3.046
 3133SOL    HW2 9413   4.197   2.103   3.053
 3134SOL     OW 9414   4.212   3.247   2.036
 3134SOL    HW1 9415   4.125   3.232   2.083
 3134SOL    HW2 9416   4.195   3.273   1.941
 3135SOL     OW 9417   4.251   2.118   2.190
 3135SOL    HW1 9418   4.278   2.059   2.115
 3135SOL    HW2 9419   4.251   2.213   2.159
 3136SOL     OW 9420   4.639   1.951   3.264
 3136SOL    HW1 9421   4.664   1.931   3.169
 3136SOL    HW2 9422   4.711   2.007   3.306
 3137SOL     OW 9423   4.429   2.912   2.230
 3137SOL    HW1 9424   4.415   2.919   2.329
 3137SOL    HW2 9425   4.513   2.861   2.212
 3138SOL     OW 9426   4.134   2.675   3.113
 3138SOL    HW1 9427   4.220   2.687   3.163
 3138SOL    HW2 9428   4.092   2.588   3.140
 3139SOL     OW 9429   3.788   3.426   3.193
 3139SOL    HW1 9430   3.742   3.508   3.159
 3139SOL    HW2 9431   3.886   3.445   3.202
 3140SOL     OW 9432   4.091   2.962   2.363
 3140SOL    HW1 9433   4.084   3.045   2.307
 3140SOL    HW2 9434   4.095   2.882   2.303
 3141SOL     OW 9435   4.290   2.399   2.727
 3141SOL    HW1 9436   4.302   2.465   2.653
 3141SOL    HW2 9437   4.336   2.433   2.810
 3142SOL     OW 9438   4.078   3.372   3.191
 3142SOL    HW1 9439   4.057   3.328   3.104
 3142SOL    HW2 9440   4.175   3.398   3.194
 3143SOL     OW 9441   4.126   2.613   3.460
 3143SOL    HW1 9442   4.194   2.668   3.413
 3143SOL    HW2 9443   4.166   2.525   3.487
 3144SOL     OW 9444   4.228   1.912   3.602
 3144SOL    HW1 9445   4.186   1.855   3.532
 3144SOL    HW2 9446   4.162   1.981   3.634
 3145SOL     OW 9447   4.297   2.732   2.891
 3145SOL    HW1 9448   4.341   2.821   2.882
 3145SOL    HW2 9449   4.234   2.732   2.968
 3146SOL     OW 9450   4.933   2.387   2.137
 3146SOL    HW1 9451   4.946   2.303   2.191
 3146SOL    HW2 9452   4.904   2.461   2.197
 3147SOL     OW 9453   4.031   2.075   3.093
 3147SOL    HW1 9454   4.008   2.112   3.183
 3147SOL    HW2 9455   4.001   1.980   3.087
 3148SOL     OW 9456   3.761   3.172   3.144
 3148SOL    HW1 9457   3.814   3.123   3.212
 3148SOL    HW2 9458   3.783   3.270   3.149
 3149SOL     OW 9459   4.456   2.496   2.926
 3149SOL    HW1 9460   4.515   2.470   2.850
 3149SOL    HW2 9461   4.428   2.592   2.915
 3150SOL     OW 9462   4.031   1.925   2.480
 3150SOL    HW1 9463   4.020   2.019   2.513
 3150SOL    HW2 9464   4.026   1.862   2.557
 3151SOL     OW 9465   4.747   2.628   2.828
 3151SOL    HW1 9466   4.762   2.649   2.924
 3151SOL    HW2 9467   4.717   2.533   2.819
 3152SOL     OW 9468   4.704   3.435   3.562
 3152SOL    HW1 9469   4.684   3.479   3.474
 3152SOL    HW2 9470   4.743   3.344   3.546
 3153SOL     OW 9471   4.074   2.760   3.666
 3153SOL    HW1 9472   4.150   2.804   3.714
 3153SOL    HW2 9473   4.109   2.713   3.584
 3154SOL     OW 9474   4.043   2.672   2.811
 3154SOL    HW1 9475   4.136   2.708   2.816
 3154SOL    HW2 9476   4.037   2.587   2.863
 3155SOL     OW 9477   4.063   2.371   2.868
 3155SOL    HW1 9478   4.011   2.288   2.851
 3155SOL    HW2 9479   4.140   2.376   2.804
 3156SOL     OW 9480   3.732   3.188   2.062
 3156SOL    HW1 9481   3.639   3.209   2.031
 3156SOL    HW2 9482   3.742   3.089   2.075
 3157SOL     OW 9483   3.812   3.663   2.789
 3157SOL    HW1 9484   3.770   3.577   2.762
 3157SOL    HW2 9485   3.906   3.666   2.755
 3158SOL     OW 9486   4.228   3.430   2.772
 3158SOL    HW1 9487   4.294   3.504   2.781
 3158SOL    HW2 9488   4.272   3.351   2.730
 3159SOL     OW 9489   4.726   2.658   3.100
 3159SOL    HW1 9490   4.767   2.626   3.186
 3159SOL    HW2 9491   4.630   2.631   3.097
 3160SOL     OW 9492   3.764   2.406   2.976
 3160SOL    HW1 9493   3.849   2.373   2.935
 3160SOL    HW2 9494   3.777   2.421   3.074
 3161SOL     OW 9495   3.913   2.382   3.584
 3161SOL    HW1 9496   3.972   2.342   3.514
 3161SOL    HW2 9497   3.855   2.453   3.543
 3162SOL     OW 9498   4.539   2.434   2.187
 3162SOL    HW1 9499   4.546   2.345   2.141
 3162SOL    HW2 9500   4.445   2.468   2.179
 3163SOL     OW 9501   3.976   3.426   3.606
 3163SOL    HW1 9502   3.946   3.483   3.682
 3163SOL    HW2 9503   3.969   3.329   3.632
 3164SOL     OW 9504   4.395   2.326   3.131
 3164SOL    HW1 9505   4.361   2.237   3.101
 3164SOL    HW2 9506   4.421   2.380   3.051
 3165SOL     OW 9507   4.197   2.362   2.053
 3165SOL    HW1 9508   4.258   2.442   2.057
 3165SOL    HW2 9509   4.102   2.393   2.060
 3166SOL     OW 9510   3.883   2.999   3.328
 3166SOL    HW1 9511   3.905   2.938   3.404
 3166SOL    HW2 9512   3.893   2.950   3.242
 3167SOL     OW 9513   3.807   3.120   2.884
 3167SOL    HW1 9514   3.802   3.119   2.984
 3167SOL    HW2 9515   3.724   3.079   2.846
 3168SOL     OW 9516   4.412   3.524   3.578
 3168SOL    HW1 9517   4.356   3.605   3.587
 3168SOL    HW2 9518   4.464   3.528   3.492
 3169SOL     OW 9519   4.627   1.948   1.995
 3169SOL    HW1 9520   4.678   1.949   1.909
 3169SOL    HW2 9521   4.683   1.906   2.066
 3170SOL     OW 9522   3.854   3.656   3.713
 3170SOL    HW1 9523   3.813   3.582   3.766
 3170SOL    HW2 9524   3.918   3.707   3.771
 3171SOL     OW 9525   4.554   3.135   3.284
 3171SOL    HW1 9526   4.549   3.168   3.379
 3171SOL    HW2 9527   4.468   3.154   3.238
 3172SOL     OW 9528   4.396   3.478   2.016
 3172SOL    HW1 9529   4.405   3.488   1.917
 3172SOL    HW2 9530   4.356   3.389   2.037
 3173SOL     OW 9531   3.987   2.188   2.582
 3173SOL    HW1 9532   3.908   2.239   2.548
 3173SOL    HW2 9533   3.978   2.173   2.680
 3174SOL     OW 9534   4.546   2.864   3.234
 3174SOL    HW1 9535   4.586   2.863   3.142
 3174SOL    HW2 9536   4.556   2.956   3.274
 3175SOL     OW 9537   4.096   3.150   3.352
 3175SOL    HW1 9538   4.083   3.243   3.318
 3175SOL    HW2 9539   4.012   3.098   3.339
 3176SOL     OW 9540   4.314   3.349   2.353
 3176SOL    HW1 9541   4.356   3.291   2.283
 3176SOL    HW2 9542   4.270   3.428   2.309
 3177SOL     OW 9543   3.979   3.210   2.152
 3177SOL    HW1 9544   3.883   3.211   2.125
 3177SOL    HW2 9545   3.991   3.263   2.236
 3178SOL     OW 9546   3.829   2.875   3.588
 3178SOL    HW1 9547   3.752   2.842   3.642
 3178SOL    HW2 9548   3.914   2.845   3.630
 3179SOL     OW 9549   4.396   2.065   3.351
 3179SOL    HW1 9550   4.486   2.049   3.311
 3179SOL    HW2 9551   4.404   2.070   3.450
 3180SOL     OW 9552   3.799   2.207   1.895
 3180SOL    HW1 9553   3.707   2.179   1.866
 3180SOL    HW2 9554   3.830   2.284   1.839
 3181SOL     OW 9555   3.796   2.028   2.180
 3181SOL    HW1 9556   3.779   2.111   2.126
 3181SOL    HW2 9557   3.886   1.991   2.158
 3182SOL     OW 9558   4.337   2.704   3.293
 3182SOL    HW1 9559   4.393   2.785   3.276
 3182SOL    HW2 9560   4.396   2.624   3.296
 3183SOL     OW 9561   4.440   2.427   3.570
 3183SOL    HW1 9562   4.459   2.492   3.644
 3183SOL    HW2 9563   4.500   2.347   3.579
 3184SOL     OW 9564   4.114   3.603   3.422
 3184SOL    HW1 9565   4.023   3.644   3.420
 3184SOL    HW2 9566   4.107   3.509   3.454
 3185SOL     OW 9567   4.949   2.187   2.311
 3185SOL    HW1 9568   5.014   2.113   2.300
 3185SOL    HW2 9569   4.969   2.237   2.395
 3186SOL     OW 9570   4.318   2.607   2.514
 3186SOL    HW1 9571   4.368   2.692   2.495
 3186SOL    HW2 9572   4.230   2.609   2.466
 3187SOL     OW 9573   4.385   3.652   2.815
 3187SOL    HW1 9574   4.339   3.740   2.802
 3187SOL    HW2 9575   4.484   3.664   2.808
 3188SOL     OW 9576   4.583   2.818   2.723
 3188SOL    HW1 9577   4.637   2.749   2.771
 3188SOL    HW2 9578   4.551   2.887   2.789
 3189SOL     OW 9579   3.945   3.176   3.706
 3189SOL    HW1 9580   3.880   3.103   3.685
 3189SOL    HW2 9581   3.949   3.190   3.804
 3190SOL     OW 9582   3.803   3.102   2.515
 3190SOL    HW1 9583   3.802   3.055   2.603
 3190SOL    HW2 9584   3.885   3.074   2.464
 3191SOL     OW 9585   4.396   3.253   3.486
 3191SOL    HW1 9586   4.318   3.203   3.524
 3191SOL    HW2 9587   4.393   3.348   3.517
 3192SOL     OW 9588   4.152   2.286   2.382
 3192SOL    HW1 9589   4.182   2.214   2.320
 3192SOL    HW2 9590   4.113   2.246   2.465
 3193SOL     OW 9591   4.041   2.409   3.142
 3193SOL    HW1 9592   4.079   2.350   3.214
 3193SOL    HW2 9593   4.081   2.383   3.054
 3194SOL     OW 9594   4.536   3.448   2.549
 3194SOL    HW1 9595   4.568   3.458   2.455
 3194SOL    HW2 9596   4.457   3.386   2.551
 3195SOL     OW 9597   4.725   1.896   3.016
 3195SOL    HW1 9598   4.662   1.824   2.985
 3195SOL    HW2 9599   4.818   1.860   3.016
 3196SOL     OW 9600   4.494   3.192   2.163
 3196SOL    HW1 9601   4.448   3.105   2.180
 3196SOL    HW2 9602   4.585   3.189   2.204
 3197SOL     OW 9603   4.342   3.429   3.146
 3197SOL    HW1 9604   4.337   3.511   3.203
 3197SOL    HW2 9605   4.431   3.426   3.101
 3198SOL     OW 9606   3.763   2.939   2.162
 3198SOL    HW1 9607   3.862   2.928   2.153
 3198SOL    HW2 9608   3.723   2.853   2.194
 3199SOL     OW 9609   4.599   3.508   2.199
 3199SOL    HW1 9610   4.522   3.473   2.145
 3199SOL    HW2 9611   4.567   3.579   2.261
 3200SOL     OW 9612   3.954   2.490   3.837
 3200SOL    HW1 9613   3.861   2.488   3.874
 3200SOL    HW2 9614   3.955   2.451   3.745
 3201SOL     OW 9615   3.949   2.137   4.720
 3201SOL    HW1 9616   3.984   2.120   4.812
 3201SOL    HW2 9617   3.861   2.092   4.708
 3202SOL     OW 9618   3.743   2.230   4.371
 3202SOL    HW1 9619   3.661   2.273   4.410
 3202SOL    HW2 9620   3.715   2.157   4.308
 3203SOL     OW 9621   4.492   3.006   4.747
 3203SOL    HW1 9622   4.414   3.023   4.807
 3203SOL    HW2 9623   4.526   3.093   4.711
 3204SOL     OW 9624   4.409   2.874   4.389
 3204SOL    HW1 9625   4.478   2.858   4.459
 3204SOL    HW2 9626   4.336   2.931   4.427
 3205SOL     OW 9627   3.955   3.575   4.207
 3205SOL    HW1 9628   3.989   3.652   4.261
 3205SOL    HW2 9629   3.999   3.575   4.117
 3206SOL     OW 9630   3.954   3.296   4.262
 3206SOL    HW1 9631   3.928   3.392   4.262
 3206SOL    HW2 9632   3.883   3.242   4.307
 3207SOL     OW 9633   3.964   2.953   4.610
 3207SOL    HW1 9634   3.978   2.869   4.662
 3207SOL    HW2 9635   3.909   3.017   4.665
 3208SOL     OW 9636   4.330   2.826   3.847
 3208SOL    HW1 9637   4.337   2.910   3.793
 3208SOL    HW2 9638   4.376   2.839   3.935
 3209SOL     OW 9639   3.846   2.505   4.287
 3209SOL    HW1 9640   3.801   2.417   4.304
 3209SOL    HW2 9641   3.845   2.559   4.371
 3210SOL     OW 9642   3.751   3.458   3.841
 3210SOL    HW1 9643   3.732   3.362   3.862
 3210SOL    HW2 9644   3.718   3.516   3.916
 3211SOL     OW 9645   4.337   3.227   4.450
 3211SOL    HW1 9646   4.288   3.140   4.459
 3211SOL    HW2 9647   4.314   3.270   4.363
 3212SOL     OW 9648   4.533   1.866   4.226
 3212SOL    HW1 9649   4.573   1.957   4.217
 3212SOL    HW2 9650   4.433   1.874   4.232
 3213SOL     OW 9651   4.322   2.591   3.994
 3213SOL    HW1 9652   4.346   2.660   3.926
 3213SOL    HW2 9653   4.244   2.624   4.048
 3214SOL     OW 9654   3.800   2.673   4.513
 3214SOL    HW1 9655   3.899   2.661   4.522
 3214SOL    HW2 9656   3.776   2.768   4.534
 3215SOL     OW 9657   4.589   2.210   3.919
 3215SOL    HW1 9658   4.648   2.273   3.870
 3215SOL    HW2 9659   4.608   2.116   3.890
 3216SOL     OW 9660   4.274   2.058   4.609
 3216SOL    HW1 9661   4.269   2.053   4.709
 3216SOL    HW2 9662   4.276   2.154   4.580
 3217SOL     OW 9663   4.732   3.318   4.201
 3217SOL    HW1 9664   4.686   3.390   4.149
 3217SOL    HW2 9665   4.728   3.338   4.299
 3218SOL     OW 9666   4.075   3.663   4.577
 3218SOL    HW1 9667   4.125   3.577   4.583
 3218SOL    HW2 9668   4.140   3.740   4.574
 3219SOL     OW 9669   4.045   2.805   3.966
 3219SOL    HW1 9670   4.127   2.844   3.924
 3219SOL    HW2 9671   4.018   2.723   3.917
 3220SOL     OW 9672   4.188   3.605   4.047
 3220SOL    HW1 9673   4.221   3.644   4.133
 3220SOL    HW2 9674   4.264   3.598   3.982
 3221SOL     OW 9675   4.106   2.562   4.204
 3221SOL    HW1 9676   4.151   2.472   4.201
 3221SOL    HW2 9677   4.012   2.551   4.237
 3222SOL     OW 9678   4.338   1.984   3.841
 3222SOL    HW1 9679   4.436   1.962   3.848
 3222SOL    HW2 9680   4.307   1.967   3.748
 3223SOL     OW 9681   4.527   3.264   4.648
 3223SOL    HW1 9682   4.617   3.278   4.606
 3223SOL    HW2 9683   4.456   3.266   4.577
 3224SOL     OW 9684   4.263   1.926   4.236
 3224SOL    HW1 9685   4.182   1.927   4.294
 3224SOL    HW2 9686   4.266   2.009   4.181
 3225SOL     OW 9687   4.021   1.897   3.895
 3225SOL    HW1 9688   4.070   1.981   3.874
 3225SOL    HW2 9689   4.083   1.832   3.940
 3226SOL     OW 9690   4.951   3.432   4.517
 3226SOL    HW1 9691   4.972   3.506   4.452
 3226SOL    HW2 9692   5.019   3.432   4.590
 3227SOL     OW 9693   4.183   3.014   4.465
 3227SOL    HW1 9694   4.112   2.987   4.530
 3227SOL    HW2 9695   4.157   2.986   4.372
 3228SOL     OW 9696   4.212   3.247   3.898
 3228SOL    HW1 9697   4.125   3.232   3.945
 3228SOL    HW2 9698   4.195   3.273   3.803
 3229SOL     OW 9699   4.251   2.118   4.052
 3229SOL    HW1 9700   4.278   2.059   3.977
 3229SOL    HW2 9701   4.251   2.213   4.021
 3230SOL     OW 9702   4.429   2.912   4.092
 3230SOL    HW1 9703   4.415   2.919   4.191
 3230SOL    HW2 9704   4.513   2.861   4.074
 3231SOL     OW 9705   4.091   2.962   4.225
 3231SOL    HW1 9706   4.084   3.045   4.169
 3231SOL    HW2 9707   4.095   2.882   4.165
 3232SOL     OW 9708   4.290   2.399   4.589
 3232SOL    HW1 9709   4.302   2.465   4.515
 3232SOL    HW2 9710   4.336   2.433   4.672
 3233SOL     OW 9711   4.933   2.387   3.999
 3233SOL    HW1 9712   4.946   2.303   4.053
 3233SOL    HW2 9713   4.904   2.461   4.059
 3234SOL     OW 9714   4.456   2.496   4.788
 3234SOL    HW1 9715   4.515   2.470   4.712
 3234SOL    HW2 9716   4.428   2.592   4.777
 3235SOL     OW 9717   4.031   1.925   4.342
 3235SOL    HW1 9718   4.020   2.019   4.375
 3235SOL    HW2 9719   4.026   1.862   4.419
 3236SOL     OW 9720   4.747   2.628   4.690
 3236SOL    HW1 9721   4.762   2.649   4.786
 3236SOL    HW2 9722   4.717   2.533   4.681
 3237SOL     OW 9723   4.043   2.672   4.673
 3237SOL    HW1 9724   4.136   2.708   4.678
 3237SOL    HW2 9725   4.037   2.587   4.725
 3238SOL     OW 9726   3.732   3.188   3.924
 3238SOL    HW1 9727   3.639   3.209   3.893
 3238SOL    HW2 9728   3.742   3.089   3.937
 3239SOL     OW 9729   3.812   3.663   4.651
 3239SOL    HW1 9730   3.770   3.577   4.624
 3239SOL    HW2 9731   3.906   3.666   4.617
 3240SOL     OW 9732   4.228   3.430   4.634
 3240SOL    HW1 9733   4.294   3.504   4.643
 3240SOL    HW2 9734   4.272   3.351   4.592
 3241SOL     OW 9735   4.726   2.658   4.962
 3241SOL    HW1 9736   4.767   2.626   5.048
 3241SOL    HW2 9737   4.630   2.631   4.959
 3242SOL     OW 9738   4.539   2.434   4.049
 3242SOL    HW1 9739   4.546   2.345   4.003
 3242SOL    HW2 9740   4.445   2.468   4.041
 3243SOL     OW 9741   4.197   2.362   3.915
 3243SOL    HW1 9742   4.258   2.442   3.919
 3243SOL    HW2 9743   4.102   2.393   3.922
 3244SOL     OW 9744   4.627   1.948   3.857
 3244SOL    HW1 9745   4.678   1.949   3.771
 3244SOL    HW2 9746   4.683   1.906   3.928
 3245SOL     OW 9747   4.396   3.478   3.878
 3245SOL    HW1 9748   4.405   3.488   3.779
 3245SOL    HW2 9749   4.356   3.389   3.899
 3246SOL     OW 9750   3.987   2.188   4.444
 3246SOL    HW1 9751   3.908   2.239   4.410
 3246SOL    HW2 9752   3.978   2.173   4.542
 3247SOL     OW 9753   4.314   3.349   4.215
 3247SOL    HW1 9754   4.356   3.291   4.145
 3247SOL    HW2 9755   4.270   3.428   4.171
 3248SOL     OW 9756   3.979   3.210   4.014
 3248SOL    HW1 9757   3.883   3.211   3.987
 3248SOL    HW2 9758   3.991   3.263   4.098
 3249SOL     OW 9759   3.799   2.207   3.757
 3249SOL    HW1 9760   3.707   2.179   3.728
 3249SOL    HW2 9761   3.830   2.284   3.701
 3250SOL     OW 9762   3.796   2.028   4.042
 3250SOL    HW1 9763   3.779   2.111   3.988
 3250SOL    HW2 9764   3.886   1.991   4.020
 3251SOL     OW 9765   4.949   2.187   4.173
 3251SOL    HW1 9766   5.014   2.113   4.162
 3251SOL    HW2 9767   4.969   2.237   4.257
 3252SOL     OW 9768   4.318   2.607   4.376
 3252SOL    HW1 9769   4.368   2.692   4.357
 3252SOL    HW2 9770   4.230   2.609   4.328
 3253SOL     OW 9771   4.385   3.652   4.677
 3253SOL    HW1 9772   4.339   3.740   4.664
 3253SOL    HW2 9773   4.484   3.664   4.670
 3254SOL     OW 9774   4.583   2.818   4.585
 3254SOL    HW1 9775   4.637   2.749   4.633
 3254SOL    HW2 9776   4.551   2.887   4.651
 3255SOL     OW 9777   3.803   3.102   4.377
 3255SOL    HW1 9778   3.802   3.055   4.465
 3255SOL    HW2 9779   3.885   3.074   4.326
 3256SOL     OW 9780   4.152   2.286   4.244
 3256SOL    HW1 9781   4.182   2.214   4.182
 3256SOL    HW2 9782   4.113   2.246   4.327
 3257SOL     OW 9783   4.536   3.448   4.411
 3257SOL    HW1 9784   4.568   3.458   4.317
 3257SOL    HW2 9785   4.457   3.386   4.413
 3258SOL     OW 9786   4.494   3.192   4.025
 3258SOL    HW1 9787   4.448   3.105   4.042
 3258SOL    HW2 9788   4.585   3.189   4.066
 3259SOL     OW 9789   3.763   2.939   4.024
 3259SOL    HW1 9790   3.862   2.928   4.015
 3259SOL    HW2 9791   3.723   2.853   4.056
 3260SOL     OW 9792   4.599   3.508   4.061
 3260SOL    HW1 9793   4.522   3.473   4.007
 3260SOL    HW2 9794   4.567   3.579   4.123
 3261SOL     OW 9795   3.954   4.352   0.113
 3261SOL    HW1 9796   3.861   4.350   0.150
 3261SOL    HW2 9797   3.955   4.313   0.021
 3262SOL     OW 9798   3.949   3.999   0.996
 3262SOL    HW1 9799   3.984   3.982   1.088
 3262SOL    HW2 9800   3.861   3.954   0.984
 3263SOL     OW 9801   3.743   4.092   0.647
 3263SOL    HW1 9802   3.661   4.135   0.686
 3263SOL    HW2 9803   3.715   4.019   0.584
 3264SOL     OW 9804   4.492   4.868   1.023
 3264SOL    HW1 9805   4.414   4.885   1.083
 3264SOL    HW2 9806   4.526   4.955   0.987
 3265SOL     OW 9807   4.574   4.522   1.823
 3265SOL    HW1 9808   4.570   4.598   1.888
 3265SOL    HW2 9809   4.596   4.558   1.732
 3266SOL     OW 9810   4.409   4.736   0.665
 3266SOL    HW1 9811   4.478   4.720   0.735
 3266SOL    HW2 9812   4.336   4.793   0.703
 3267SOL     OW 9813   4.162   4.116   1.499
 3267SOL    HW1 9814   4.244   4.060   1.508
 3267SOL    HW2 9815   4.081   4.058   1.503
 3268SOL     OW 9816   3.846   4.367   0.563
 3268SOL    HW1 9817   3.801   4.279   0.580
 3268SOL    HW2 9818   3.845   4.421   0.647
 3269SOL     OW 9819   3.837   4.461   1.597
 3269SOL    HW1 9820   3.925   4.448   1.642
 3269SOL    HW2 9821   3.824   4.558   1.575
 3270SOL     OW 9822   4.533   3.728   0.502
 3270SOL    HW1 9823   4.573   3.819   0.493
 3270SOL    HW2 9824   4.433   3.736   0.508
 3271SOL     OW 9825   3.921   4.700   1.264
 3271SOL    HW1 9826   4.010   4.655   1.250
 3271SOL    HW2 9827   3.848   4.635   1.245
 3272SOL     OW 9828   4.041   3.975   1.801
 3272SOL    HW1 9829   4.112   4.046   1.807
 3272SOL    HW2 9830   3.953   4.014   1.829
 3273SOL     OW 9831   4.322   4.453   0.270
 3273SOL    HW1 9832   4.346   4.522   0.202
 3273SOL    HW2 9833   4.244   4.486   0.324
 3274SOL     OW 9834   4.531   4.329   1.465
 3274SOL    HW1 9835   4.484   4.326   1.554
 3274SOL    HW2 9836   4.480   4.274   1.399
 3275SOL     OW 9837   4.715   4.134   1.242
 3275SOL    HW1 9838   4.638   4.168   1.296
 3275SOL    HW2 9839   4.681   4.083   1.163
 3276SOL     OW 9840   3.800   4.535   0.789
 3276SOL    HW1 9841   3.899   4.523   0.798
 3276SOL    HW2 9842   3.776   4.630   0.810
 3277SOL     OW 9843   4.589   4.072   0.195
 3277SOL    HW1 9844   4.648   4.135   0.146
 3277SOL    HW2 9845   4.608   3.978   0.166
 3278SOL     OW 9846   4.274   3.920   0.885
 3278SOL    HW1 9847   4.269   3.915   0.985
 3278SOL    HW2 9848   4.276   4.016   0.856
 3279SOL     OW 9849   3.926   4.009   1.498
 3279SOL    HW1 9850   3.846   4.069   1.485
 3279SOL    HW2 9851   3.916   3.960   1.584
 3280SOL     OW 9852   4.106   4.424   0.480
 3280SOL    HW1 9853   4.151   4.334   0.477
 3280SOL    HW2 9854   4.012   4.413   0.513
 3281SOL     OW 9855   4.505   3.988   1.749
 3281SOL    HW1 9856   4.572   3.927   1.792
 3281SOL    HW2 9857   4.432   4.007   1.814
 3282SOL     OW 9858   4.646   4.227   0.899
 3282SOL    HW1 9859   4.621   4.218   0.803
 3282SOL    HW2 9860   4.694   4.145   0.930
 3283SOL     OW 9861   4.263   3.788   0.512
 3283SOL    HW1 9862   4.182   3.789   0.570
 3283SOL    HW2 9863   4.266   3.871   0.457
 3284SOL     OW 9864   4.021   3.759   0.171
 3284SOL    HW1 9865   4.070   3.843   0.150
 3284SOL    HW2 9866   4.083   3.694   0.216
 3285SOL     OW 9867   3.802   4.280   1.386
 3285SOL    HW1 9868   3.894   4.279   1.345
 3285SOL    HW2 9869   3.796   4.354   1.453
 3286SOL     OW 9870   4.285   3.946   1.147
 3286SOL    HW1 9871   4.323   3.862   1.184
 3286SOL    HW2 9872   4.197   3.965   1.191
 3287SOL     OW 9873   4.251   3.980   0.328
 3287SOL    HW1 9874   4.278   3.921   0.253
 3287SOL    HW2 9875   4.251   4.075   0.297
 3288SOL     OW 9876   4.639   3.813   1.402
 3288SOL    HW1 9877   4.664   3.793   1.307
 3288SOL    HW2 9878   4.711   3.869   1.444
 3289SOL     OW 9879   4.134   4.537   1.251
 3289SOL    HW1 9880   4.220   4.549   1.301
 3289SOL    HW2 9881   4.092   4.450   1.278
 3290SOL     OW 9882   4.290   4.261   0.865
 3290SOL    HW1 9883   4.302   4.327   0.791
 3290SOL    HW2 9884   4.336   4.295   0.948
 3291SOL     OW 9885   4.126   4.475   1.598
 3291SOL    HW1 9886   4.194   4.530   1.551
 3291SOL    HW2 9887   4.166   4.387   1.625
 3292SOL     OW 9888   4.228   3.774   1.740
 3292SOL    HW1 9889   4.186   3.717   1.670
 3292SOL    HW2 9890   4.162   3.843   1.772
 3293SOL     OW 9891   4.297   4.594   1.029
 3293SOL    HW1 9892   4.341   4.683   1.020
 3293SOL    HW2 9893   4.234   4.594   1.106
 3294SOL     OW 9894   4.933   4.249   0.275
 3294SOL    HW1 9895   4.946   4.165   0.329
 3294SOL    HW2 9896   4.904   4.323   0.335
 3295SOL     OW 9897   4.031   3.937   1.231
 3295SOL    HW1 9898   4.008   3.974   1.321
 3295SOL    HW2 9899   4.001   3.842   1.225
 3296SOL     OW 9900   4.456   4.358   1.064
 3296SOL    HW1 9901   4.515   4.332   0.988
 3296SOL    HW2 9902   4.428   4.454   1.053
 3297SOL     OW 9903   4.031   3.787   0.618
 3297SOL    HW1 9904   4.020   3.881   0.651
 3297SOL    HW2 9905   4.026   3.724   0.695
 3298SOL     OW 9906   4.747   4.490   0.966
 3298SOL    HW1 9907   4.762   4.511   1.062
 3298SOL    HW2 9908   4.717   4.395   0.957
 3299SOL     OW 9909   4.074   4.622   1.804
 3299SOL    HW1 9910   4.150   4.666   1.852
 3299SOL    HW2 9911   4.109   4.575   1.722
 3300SOL     OW 9912   4.792   5.057   0.849
 3300SOL    HW1 9913   4.799   4.973   0.794
 3300SOL    HW2 9914   4.854   5.126   0.813
 3301SOL     OW 9915   4.043   4.534   0.949
 3301SOL    HW1 9916   4.136   4.570   0.954
 3301SOL    HW2 9917   4.037   4.449   1.001
 3302SOL     OW 9918   4.063   4.233   1.006
 3302SOL    HW1 9919   4.011   4.150   0.989
 3302SOL    HW2 9920   4.140   4.238   0.942
 3303SOL     OW 9921   4.726   4.520   1.238
 3303SOL    HW1 9922   4.767   4.488   1.324
 3303SOL    HW2 9923   4.630   4.493   1.235
 3304SOL     OW 9924   3.764   4.268   1.114
 3304SOL    HW1 9925   3.849   4.235   1.073
 3304SOL    HW2 9926   3.777   4.283   1.212
 3305SOL     OW 9927   3.913   4.244   1.722
 3305SOL    HW1 9928   3.972   4.204   1.652
 3305SOL    HW2 9929   3.855   4.315   1.681
 3306SOL     OW 9930   4.539   4.296   0.325
 3306SOL    HW1 9931   4.546   4.207   0.279
 3306SOL    HW2 9932   4.445   4.330   0.317
 3307SOL     OW 9933   4.395   4.188   1.269
 3307SOL    HW1 9934   4.361   4.099   1.239
 3307SOL    HW2 9935   4.421   4.242   1.189
 3308SOL     OW 9936   4.197   4.224   0.191
 3308SOL    HW1 9937   4.258   4.304   0.195
 3308SOL    HW2 9938   4.102   4.255   0.198
 3309SOL     OW 9939   5.026   4.579   0.309
 3309SOL    HW1 9940   4.940   4.548   0.351
 3309SOL    HW2 9941   5.022   4.565   0.210
 3310SOL     OW 9942   4.627   3.810   0.133
 3310SOL    HW1 9943   4.678   3.811   0.047
 3310SOL    HW2 9944   4.683   3.768   0.204
 3311SOL     OW 9945   3.987   4.050   0.720
 3311SOL    HW1 9946   3.908   4.101   0.686
 3311SOL    HW2 9947   3.978   4.035   0.818
 3312SOL     OW 9948   4.763   4.822   0.696
 3312SOL    HW1 9949   4.693   4.775   0.750
 3312SOL    HW2 9950   4.822   4.754   0.653
 3313SOL     OW 9951   3.829   4.737   1.726
 3313SOL    HW1 9952   3.752   4.704   1.780
 3313SOL    HW2 9953   3.914   4.707   1.768
 3314SOL     OW 9954   4.396   3.927   1.489
 3314SOL    HW1 9955   4.486   3.911   1.449
 3314SOL    HW2 9956   4.404   3.932   1.588
 3315SOL     OW 9957   3.796   3.890   0.318
 3315SOL    HW1 9958   3.779   3.973   0.264
 3315SOL    HW2 9959   3.886   3.853   0.296
 3316SOL     OW 9960   4.337   4.566   1.431
 3316SOL    HW1 9961   4.393   4.647   1.414
 3316SOL    HW2 9962   4.396   4.486   1.434
 3317SOL     OW 9963   4.440   4.289   1.708
 3317SOL    HW1 9964   4.459   4.354   1.782
 3317SOL    HW2 9965   4.500   4.209   1.717
 3318SOL     OW 9966   4.949   4.049   0.449
 3318SOL    HW1 9967   5.014   3.975   0.438
 3318SOL    HW2 9968   4.969   4.099   0.533
 3319SOL     OW 9969   4.318   4.469   0.652
 3319SOL    HW1 9970   4.368   4.554   0.633
 3319SOL    HW2 9971   4.230   4.471   0.604
 3320SOL     OW 9972   4.583   4.680   0.861
 3320SOL    HW1 9973   4.637   4.611   0.909
 3320SOL    HW2 9974   4.551   4.749   0.927
 3321SOL     OW 9975   4.152   4.148   0.520
 3321SOL    HW1 9976   4.182   4.076   0.458
 3321SOL    HW2 9977   4.113   4.108   0.603
 3322SOL     OW 9978   4.041   4.271   1.280
 3322SOL    HW1 9979   4.079   4.212   1.352
 3322SOL    HW2 9980   4.081   4.245   1.192
 3323SOL     OW 9981   4.725   3.758   1.154
 3323SOL    HW1 9982   4.662   3.686   1.123
 3323SOL    HW2 9983   4.818   3.722   1.154
 3324SOL     OW 9984   3.954   4.352   1.975
 3324SOL    HW1 9985   3.861   4.350   2.012
 3324SOL    HW2 9986   3.955   4.313   1.883
 3325SOL     OW 9987   3.949   3.999   2.858
 3325SOL    HW1 9988   3.984   3.982   2.950
 3325SOL    HW2 9989   3.861   3.954   2.846
 3326SOL     OW 9990   3.743   4.092   2.509
 3326SOL    HW1 9991   3.661   4.135   2.548
 3326SOL    HW2 9992   3.715   4.019   2.446
 3327SOL     OW 9993   4.492   4.868   2.885
 3327SOL    HW1 9994   4.414   4.885   2.945
 3327SOL    HW2 9995   4.526   4.955   2.849
 3328SOL     OW 9996   4.574   4.522   3.685
 3328SOL    HW1 9997   4.570   4.598   3.750
 3328SOL    HW2 9998   4.596   4.558   3.594
 3329SOL     OW 9999   4.409   4.736   2.527
 3329SOL    HW110000   4.478   4.720   2.597
 3329SOL    HW210001   4.336   4.793   2.565
 3330SOL     OW10002   4.162   4.116   3.361
 3330SOL    HW110003   4.244   4.060   3.370
 3330SOL    HW210004   4.081   4.058   3.365
 3331SOL     OW10005   3.846   4.367   2.425
 3331SOL    HW110006   3.801   4.279   2.442
 3331SOL    HW210007   3.845   4.421   2.509
 3332SOL     OW10008   3.837   4.461   3.459
 3332SOL    HW110009   3.925   4.448   3.504
 3332SOL    HW210010   3.824   4.558   3.437
 3333SOL     OW10011   4.533   3.728   2.364
 3333SOL    HW110012   4.573   3.819   2.355
 3333SOL    HW210013   4.433   3.736   2.370
 3334SOL     OW10014   3.921   4.700   3.126
 3334SOL    HW110015   4.010   4.655   3.112
 3334SOL    HW210016   3.848   4.635   3.107
 3335SOL     OW10017   4.041   3.975   3.663
 3335SOL    HW110018   4.112   4.046   3.669
 3335SOL    HW210019   3.953   4.014   3.691
 3336SOL     OW10020   4.322   4.453   2.132
 3336SOL    HW110021   4.346   4.522   2.064
 3336SOL    HW210022   4.244   4.486   2.186
 3337SOL     OW10023   4.531   4.329   3.327
 3337SOL    HW110024   4.484   4.326   3.416
 3337SOL    HW210025   4.480   4.274   3.261
 3338SOL     OW10026   4.715   4.134   3.104
 3338SOL    HW110027   4.638   4.168   3.158
 3338SOL    HW210028   4.681   4.083   3.025
 3339SOL     OW10029   3.800   4.535   2.651
 3339SOL    HW110030   3.899   4.523   2.660
 3339SOL    HW210031   3.776   4.630   2.672
 3340SOL     OW10032   4.589   4.072   2.057
 3340SOL    HW110033   4.648   4.135   2.008
 3340SOL    HW210034   4.608   3.978   2.028
 3341SOL     OW10035   4.274   3.920   2.747
 3341SOL    HW110036   4.269   3.915   2.847
 3341SOL    HW210037   4.276   4.016   2.718
 3342SOL     OW10038   3.926   4.009   3.360
 3342SOL    HW110039   3.846   4.069   3.347
 3342SOL    HW210040   3.916   3.960   3.446
 3343SOL     OW10041   4.106   4.424   2.342
 3343SOL    HW110042   4.151   4.334   2.339
 3343SOL    HW210043   4.012   4.413   2.375
 3344SOL     OW10044   4.338   3.846   1.979
 3344SOL    HW110045   4.436   3.824   1.986
 3344SOL    HW210046   4.307   3.829   1.886
 3345SOL     OW10047   4.505   3.988   3.611
 3345SOL    HW110048   4.572   3.927   3.654
 3345SOL    HW210049   4.432   4.007   3.676
 3346SOL     OW10050   4.646   4.227   2.761
 3346SOL    HW110051   4.621   4.218   2.665
 3346SOL    HW210052   4.694   4.145   2.792
 3347SOL     OW10053   4.263   3.788   2.374
 3347SOL    HW110054   4.182   3.789   2.432
 3347SOL    HW210055   4.266   3.871   2.319
 3348SOL     OW10056   4.021   3.759   2.033
 3348SOL    HW110057   4.070   3.843   2.012
 3348SOL    HW210058   4.083   3.694   2.078
 3349SOL     OW10059   3.802   4.280   3.248
 3349SOL    HW110060   3.894   4.279   3.207
 3349SOL    HW210061   3.796   4.354   3.315
 3350SOL     OW10062   4.285   3.946   3.009
 3350SOL    HW110063   4.323   3.862   3.046
 3350SOL    HW210064   4.197   3.965   3.053
 3351SOL     OW10065   4.251   3.980   2.190
 3351SOL    HW110066   4.278   3.921   2.115
 3351SOL    HW210067   4.251   4.075   2.159
 3352SOL     OW10068   4.639   3.813   3.264
 3352SOL    HW110069   4.664   3.793   3.169
 3352SOL    HW210070   4.711   3.869   3.306
 3353SOL     OW10071   4.134   4.537   3.113
 3353SOL    HW110072   4.220   4.549   3.163
 3353SOL    HW210073   4.092   4.450   3.140
 3354SOL     OW10074   4.290   4.261   2.727
 3354SOL    HW110075   4.302   4.327   2.653
 3354SOL    HW210076   4.336   4.295   2.810
 3355SOL     OW10077   4.126   4.475   3.460
 3355SOL    HW110078   4.194   4.530   3.413
 3355SOL    HW210079   4.166   4.387   3.487
 3356SOL     OW10080   4.228   3.774   3.602
 3356SOL    HW110081   4.186   3.717   3.532
 3356SOL    HW210082   4.162   3.843   3.634
 3357SOL     OW10083   4.297   4.594   2.891
 3357SOL    HW110084   4.341   4.683   2.882
 3357SOL    HW210085   4.234   4.594   2.968
 3358SOL     OW10086   4.933   4.249   2.137
 3358SOL    HW110087   4.946   4.165   2.191
 3358SOL    HW210088   4.904   4.323   2.197
 3359SOL     OW10089   4.031   3.937   3.093
 3359SOL    HW110090   4.008   3.974   3.183
 3359SOL    HW210091   4.001   3.842   3.087
 3360SOL     OW10092   4.456   4.358   2.926
 3360SOL    HW110093   4.515   4.332   2.850
 3360SOL    HW210094   4.428   4.454   2.915
 3361SOL     OW10095   4.031   3.787   2.480
 3361SOL    HW110096   4.020   3.881   2.513
 3361SOL    HW210097   4.026   3.724   2.557
 3362SOL     OW10098   4.747   4.490   2.828
 3362SOL    HW110099   4.762   4.511   2.924
 3362SOL    HW210100   4.717   4.395   2.819
 3363SOL     OW10101   4.074   4.622   3.666
 3363SOL    HW110102   4.150   4.666   3.714
 3363SOL    HW210103   4.109   4.575   3.584
 3364SOL     OW10104   4.792   5.057   2.711
 3364SOL    HW110105   4.799   4.973   2.656
 3364SOL    HW210106   4.854   5.126   2.675
 3365SOL     OW10107   4.043   4.534   2.811
 3365SOL    HW110108   4.136   4.570   2.816
 3365SOL    HW210109   4.037   4.449   2.863
 3366SOL     OW10110   4.063   4.233   2.868
 3366SOL    HW110111   4.011   4.150   2.851
 3366SOL    HW210112   4.140   4.238   2.804
 3367SOL     OW10113   4.726   4.520   3.100
 3367SOL    HW110114   4.767   4.488   3.186
 3367SOL    HW210115   4.630   4.493   3.097
 3368SOL     OW10116   3.764   4.268   2.976
 3368SOL    HW110117   3.849   4.235   2.935
 3368SOL    HW210118   3.777   4.283   3.074
 3369SOL     OW10119   3.913   4.244   3.584
 3369SOL    HW110120   3.972   4.204   3.514
 3369SOL    HW210121   3.855   4.315   3.543
 3370SOL     OW10122   4.539   4.296   2.187
 3370SOL    HW110123   4.546   4.207   2.141
 3370SOL    HW210124   4.445   4.330   2.179
 3371SOL     OW10125   4.395   4.188   3.131
 3371SOL    HW110126   4.361   4.099   3.101
 3371SOL    HW210127   4.421   4.242   3.051
 3372SOL     OW10128   4.197   4.224   2.053
 3372SOL    HW110129   4.258   4.304   2.057
 3372SOL    HW210130   4.102   4.255   2.060
 3373SOL     OW10131   5.026   4.579   2.171
 3373SOL    HW110132   4.940   4.548   2.213
 3373SOL    HW210133   5.022   4.565   2.072
 3374SOL     OW10134   4.627   3.810   1.995
 3374SOL    HW110135   4.678   3.811   1.909
 3374SOL    HW210136   4.683   3.768   2.066
 3375SOL     OW10137   3.987   4.050   2.582
 3375SOL    HW110138   3.908   4.101   2.548
 3375SOL    HW210139   3.978   4.035   2.680
 3376SOL     OW10140   4.763   4.822   2.558
 3376SOL    HW110141   4.693   4.775   2.612
 3376SOL    HW210142   4.822   4.754   2.515
 3377SOL     OW10143   3.829   4.737   3.588
 3377SOL    HW110144   3.752   4.704   3.642
 3377SOL    HW210145   3.914   4.707   3.630
 3378SOL     OW10146   4.396   3.927   3.351
 3378SOL    HW110147   4.486   3.911   3.311
 3378SOL    HW210148   4.404   3.932   3.450
 3379SOL     OW10149   3.799   4.069   1.895
 3379SOL    HW110150   3.707   4.041   1.866
 3379SOL    HW210151   3.830   4.146   1.839
 3380SOL     OW10152   3.796   3.890   2.180
 3380SOL    HW110153   3.779   3.973   2.126
 3380SOL    HW210154   3.886   3.853   2.158
 3381SOL     OW10155   4.337   4.566   3.293
 3381SOL    HW110156   4.393   4.647   3.276
 3381SOL    HW210157   4.396   4.486   3.296
 3382SOL     OW10158   4.440   4.289   3.570
 3382SOL    HW110159   4.459   4.354   3.644
 3382SOL    HW210160   4.500   4.209   3.579
 3383SOL     OW10161   4.949   4.049   2.311
 3383SOL    HW110162   5.014   3.975   2.300
 3383SOL    HW210163   4.969   4.099   2.395
 3384SOL     OW10164   4.318   4.469   2.514
 3384SOL    HW110165   4.368   4.554   2.495
 3384SOL    HW210166   4.230   4.471   2.466
 3385SOL     OW10167   4.583   4.680   2.723
 3385SOL    HW110168   4.637   4.611   2.771
 3385SOL    HW210169   4.551   4.749   2.789
 3386SOL     OW10170   4.152   4.148   2.382
 3386SOL    HW110171   4.182   4.076   2.320
 3386SOL    HW210172   4.113   4.108   2.465
 3387SOL     OW10173   4.041   4.271   3.142
 3387SOL    HW110174   4.079   4.212   3.214
 3387SOL    HW210175   4.081   4.245   3.054
 3388SOL     OW10176   4.725   3.758   3.016
 3388SOL    HW110177   4.662   3.686   2.985
 3388SOL    HW210178   4.818   3.722   3.016
 3389SOL     OW10179   3.954   4.352   3.837
 3389SOL    HW110180   3.861   4.350   3.874
 3389SOL    HW210181   3.955   4.313   3.745
 3390SOL     OW10182   3.949   3.999   4.720
 3390SOL    HW110183   3.984   3.982   4.812
 3390SOL    HW210184   3.861   3.954   4.708
 3391SOL     OW10185   3.743   4.092   4.371
 3391SOL    HW110186   3.661   4.135   4.410
 3391SOL    HW210187   3.715   4.019   4.308
 3392SOL     OW10188   4.409   4.736   4.389
 3392SOL    HW110189   4.478   4.720   4.459
 3392SOL    HW210190   4.336   4.793   4.427
 3393SOL     OW10191   3.846   4.367   4.287
 3393SOL    HW110192   3.801   4.279   4.304
 3393SOL    HW210193   3.845   4.421   4.371
 3394SOL     OW10194   4.533   3.728   4.226
 3394SOL    HW110195   4.573   3.819   4.217
 3394SOL    HW210196   4.433   3.736   4.232
 3395SOL     OW10197   4.322   4.453   3.994
 3395SOL    HW110198   4.346   4.522   3.926
 3395SOL    HW210199   4.244   4.486   4.048
 3396SOL     OW10200   3.800   4.535   4.513
 3396SOL    HW110201   3.899   4.523   4.522
 3396SOL    HW210202   3.776   4.630   4.534
 3397SOL     OW10203   4.589   4.072   3.919
 3397SOL    HW110204   4.648   4.135   3.870
 3397SOL    HW210205   4.608   3.978   3.890
 3398SOL     OW10206   4.274   3.920   4.609
 3398SOL    HW110207   4.269   3.915   4.709
 3398SOL    HW210208   4.276   4.016   4.580
 3399SOL     OW10209   4.106   4.424   4.204
 3399SOL    HW110210   4.151   4.334   4.201
 3399SOL    HW210211   4.012   4.413   4.237
 3400SOL     OW10212   4.338   3.846   3.841
 3400SOL    HW110213   4.436   3.824   3.848
 3400SOL    HW210214   4.307   3.829   3.748
 3401SOL     OW10215   4.263   3.788   4.236
 3401SOL    HW110216   4.182   3.789   4.294
 3401SOL    HW210217   4.266   3.871   4.181
 3402SOL     OW10218   4.021   3.759   3.895
 3402SOL    HW110219   4.070   3.843   3.874
 3402SOL    HW210220   4.083   3.694   3.940
 3403SOL     OW10221   4.251   3.980   4.052
 3403SOL    HW110222   4.278   3.921   3.977
 3403SOL    HW210223   4.251   4.075   4.021
 3404SOL     OW10224   4.290   4.261   4.589
 3404SOL    HW110225   4.302   4.327   4.515
 3404SOL    HW210226   4.336   4.295   4.672
 3405SOL     OW10227   4.297   4.594   4.753
 3405SOL    HW110228   4.341   4.683   4.744
 3405SOL    HW210229   4.234   4.594   4.830
 3406SOL     OW10230   4.933   4.249   3.999
 3406SOL    HW110231   4.946   4.165   4.053
 3406SOL    HW210232   4.904   4.323   4.059
 3407SOL     OW10233   4.456   4.358   4.788
 3407SOL    HW110234   4.515   4.332   4.712
 3407SOL    HW210235   4.428   4.454   4.777
 3408SOL     OW10236   4.031   3.787   4.342
 3408SOL    HW110237   4.020   3.881   4.375
 3408SOL    HW210238   4.026   3.724   4.419
 3409SOL     OW10239   4.747   4.490   4.690
 3409SOL    HW110240   4.762   4.511   4.786
 3409SOL    HW210241   4.717   4.395   4.681
 3410SOL     OW10242   4.792   5.057   4.573
 3410SOL    HW110243   4.799   4.973   4.518
 3410SOL    HW210244   4.854   5.126   4.537
 3411SOL     OW10245   4.043   4.534   4.673
 3411SOL    HW110246   4.136   4.570   4.678
 3411SOL    HW210247   4.037   4.449   4.725
 3412SOL     OW10248   4.726   4.520   4.962
 3412SOL    HW110249   4.767   4.488   5.048
 3412SOL    HW210250   4.630   4.493   4.959
 3413SOL     OW10251   4.539   4.296   4.049
 3413SOL    HW110252   4.546   4.207   4.003
 3413SOL    HW210253   4.445   4.330   4.041
 3414SOL     OW10254   4.197   4.224   3.915
 3414SOL    HW110255   4.258   4.304   3.919
 3414SOL    HW210256   4.102   4.255   3.922
 3415SOL     OW10257   5.026   4.579   4.033
 3415SOL    HW110258   4.940   4.548   4.075
 3415SOL    HW210259   5.022   4.565   3.934
 3416SOL     OW10260   4.627   3.810   3.857
 3416SOL    HW110261   4.678   3.811   3.771
 3416SOL    HW210262   4.683   3.768   3.928
 3417SOL     OW10263   3.987   4.050   4.444
 3417SOL    HW110264   3.908   4.101   4.410
 3417SOL    HW210265   3.978   4.035   4.542
 3418SOL     OW10266   4.763   4.822   4.420
 3418SOL    HW110267   4.693   4.775   4.474
 3418SOL    HW210268   4.822   4.754   4.377
 3419SOL     OW10269   3.799   4.069   3.757
 3419SOL    HW110270   3.707   4.041   3.728
 3419SOL    HW210271   3.830   4.146   3.701
 3420SOL     OW10272   3.796   3.890   4.042
 3420SOL    HW110273   3.779   3.973   3.988
 3420SOL    HW210274   3.886   3.853   4.020
 3421SOL     OW10275   4.949   4.049   4.173
 3421SOL    HW110276   5.014   3.975   4.162
 3421SOL    HW210277   4.969   4.099   4.257
 3422SOL     OW10278   4.318   4.469   4.376
 3422SOL    HW110279   4.368   4.554   4.357
 3422SOL    HW210280   4.230   4.471   4.328
 3423SOL     OW10281   4.583   4.680   4.585
 3423SOL    HW110282   4.637   4.611   4.633
 3423SOL    HW210283   4.551   4.749   4.651
 3424SOL     OW10284   4.152   4.148   4.244
 3424SOL    HW110285   4.182   4.076   4.182
 3424SOL    HW210286   4.113   4.108   4.327
   4.72742   4.72742   4.72742
