mobley_7497999_GMX.gro created by acpype (v: 2023.10.27) on Wed May 20 23:43:50 2026
   17
    1MOL     C1    1   2.394   2.343   2.114
    1MOL     C2    2   2.287   2.403   2.181
    1MOL     C3    3   2.499   2.287   2.186
    1MOL     C4    4   2.285   2.406   2.321
    1MOL     C5    5   2.497   2.290   2.326
    1MOL     C6    6   2.390   2.349   2.393
    1MOL     C7    7   2.388   2.352   2.538
    1MOL     C8    8   2.272   2.418   2.612
    1MOL     O1    9   2.481   2.303   2.606
    1MOL     H1   10   2.395   2.341   2.005
    1MOL     H2   11   2.205   2.447   2.125
    1MOL     H3   12   2.582   2.240   2.134
    1MOL     H4   13   2.201   2.453   2.372
    1MOL     H5   14   2.579   2.245   2.381
    1MOL     H6   15   2.179   2.365   2.589
    1MOL     H7   16   2.265   2.523   2.585
    1MOL     H8   17   2.288   2.412   2.721
   4.72742   4.72742   4.72742
