; mobley_2487143_GMX.itp created by acpype (v: 2023.10.27) on Wed May 20 23:59:29 2026

[ atomtypes ]
;name   bond_type     mass     charge   ptype   sigma         epsilon       Amb
 c        c           0.00000  0.00000   A     3.31521e-01   4.13379e-01 ; 1.86  0.0988
 c3       c3          0.00000  0.00000   A     3.39771e-01   4.51035e-01 ; 1.91  0.1078
 o        o           0.00000  0.00000   A     3.04812e-01   6.12119e-01 ; 1.71  0.1463
 hc       hc          0.00000  0.00000   A     2.60018e-01   8.70272e-02 ; 1.46  0.0208

[ moleculetype ]
;name            nrexcl
 mobley_2487143   3

[ atoms ]
;   nr  type  resi  res  atom  cgnr     charge      mass       ; qtot   bond_type
     1    c     1   MOL    C1    1     0.563100     12.01000 ; qtot 0.563
     2   c3     1   MOL    C2    2    -0.205100     12.01000 ; qtot 0.358
     3   c3     1   MOL    C3    3    -0.092100     12.01000 ; qtot 0.266
     4   c3     1   MOL    C4    4    -0.182400     12.01000 ; qtot 0.083
     5   c3     1   MOL    C5    5    -0.079400     12.01000 ; qtot 0.004
     6   c3     1   MOL    C6    6    -0.075400     12.01000 ; qtot -0.071
     7    o     1   MOL    O1    7    -0.530100     16.00000 ; qtot -0.601
     8   hc     1   MOL    H1    8     0.063033      1.00800 ; qtot -0.538
     9   hc     1   MOL    H2    9     0.063033      1.00800 ; qtot -0.475
    10   hc     1   MOL    H3   10     0.063033      1.00800 ; qtot -0.412
    11   hc     1   MOL    H4   11     0.034367      1.00800 ; qtot -0.378
    12   hc     1   MOL    H5   12     0.034367      1.00800 ; qtot -0.344
    13   hc     1   MOL    H6   13     0.034367      1.00800 ; qtot -0.309
    14   hc     1   MOL    H7   14     0.063200      1.00800 ; qtot -0.246
    15   hc     1   MOL    H8   15     0.063200      1.00800 ; qtot -0.183
    16   hc     1   MOL    H9   16     0.036200      1.00800 ; qtot -0.147
    17   hc     1   MOL   H10   17     0.036200      1.00800 ; qtot -0.110
    18   hc     1   MOL   H11   18     0.055200      1.00800 ; qtot -0.055
    19   hc     1   MOL   H12   19     0.055200      1.00800 ; qtot 0.000

[ bonds ]
;   ai     aj funct   r             k
     1      2   1    1.5270e-01    1.9652e+05 ;     C1 - C2    
     1      4   1    1.5270e-01    1.9652e+05 ;     C1 - C4    
     1      7   1    1.2190e-01    4.9421e+05 ;     C1 - O1    
     2      8   1    1.0962e-01    2.8891e+05 ;     C2 - H1    
     2      9   1    1.0962e-01    2.8891e+05 ;     C2 - H2    
     2     10   1    1.0962e-01    2.8891e+05 ;     C2 - H3    
     3      5   1    1.5354e-01    1.9154e+05 ;     C3 - C5    
     3     11   1    1.0962e-01    2.8891e+05 ;     C3 - H4    
     3     12   1    1.0962e-01    2.8891e+05 ;     C3 - H5    
     3     13   1    1.0962e-01    2.8891e+05 ;     C3 - H6    
     4      6   1    1.5354e-01    1.9154e+05 ;     C4 - C6    
     4     14   1    1.0962e-01    2.8891e+05 ;     C4 - H7    
     4     15   1    1.0962e-01    2.8891e+05 ;     C4 - H8    
     5      6   1    1.5354e-01    1.9154e+05 ;     C5 - C6    
     5     16   1    1.0962e-01    2.8891e+05 ;     C5 - H9    
     5     17   1    1.0962e-01    2.8891e+05 ;     C5 - H10   
     6     18   1    1.0962e-01    2.8891e+05 ;     C6 - H11   
     6     19   1    1.0962e-01    2.8891e+05 ;     C6 - H12   

[ pairs ]
;   ai     aj    funct
     1      5      1 ;     C1 - C5    
     1     18      1 ;     C1 - H11   
     1     19      1 ;     C1 - H12   
     2      6      1 ;     C2 - C6    
     2     14      1 ;     C2 - H7    
     2     15      1 ;     C2 - H8    
     3      4      1 ;     C3 - C4    
     3     18      1 ;     C3 - H11   
     3     19      1 ;     C3 - H12   
     4      8      1 ;     C4 - H1    
     4      9      1 ;     C4 - H2    
     4     10      1 ;     C4 - H3    
     4     16      1 ;     C4 - H9    
     4     17      1 ;     C4 - H10   
     5     14      1 ;     C5 - H7    
     5     15      1 ;     C5 - H8    
     6     11      1 ;     C6 - H4    
     6     12      1 ;     C6 - H5    
     6     13      1 ;     C6 - H6    
     7      6      1 ;     O1 - C6    
     7      8      1 ;     O1 - H1    
     7      9      1 ;     O1 - H2    
     7     10      1 ;     O1 - H3    
     7     14      1 ;     O1 - H7    
     7     15      1 ;     O1 - H8    
    11     16      1 ;     H4 - H9    
    11     17      1 ;     H4 - H10   
    12     16      1 ;     H5 - H9    
    12     17      1 ;     H5 - H10   
    13     16      1 ;     H6 - H9    
    13     17      1 ;     H6 - H10   
    14     18      1 ;     H7 - H11   
    14     19      1 ;     H7 - H12   
    15     18      1 ;     H8 - H11   
    15     19      1 ;     H8 - H12   
    16     18      1 ;     H9 - H11   
    16     19      1 ;     H9 - H12   
    17     18      1 ;    H10 - H11   
    17     19      1 ;    H10 - H12   

[ angles ]
;   ai     aj     ak    funct   theta         cth
     1      2      8      1    1.0895e+02    3.6510e+02 ;     C1 - C2     - H1    
     1      2      9      1    1.0895e+02    3.6510e+02 ;     C1 - C2     - H2    
     1      2     10      1    1.0895e+02    3.6510e+02 ;     C1 - C2     - H3    
     1      4      6      1    1.1143e+02    5.0509e+02 ;     C1 - C4     - C6    
     1      4     14      1    1.0895e+02    3.6510e+02 ;     C1 - C4     - H7    
     1      4     15      1    1.0895e+02    3.6510e+02 ;     C1 - C4     - H8    
     2      1      4      1    1.1668e+02    4.9497e+02 ;     C2 - C1     - C4    
     2      1      7      1    1.2290e+02    6.3973e+02 ;     C2 - C1     - O1    
     3      5      6      1    1.1263e+02    5.0099e+02 ;     C3 - C5     - C6    
     3      5     16      1    1.0968e+02    3.6208e+02 ;     C3 - C5     - H9    
     3      5     17      1    1.0968e+02    3.6208e+02 ;     C3 - C5     - H10   
     4      1      7      1    1.2290e+02    6.3973e+02 ;     C4 - C1     - O1    
     4      6      5      1    1.1263e+02    5.0099e+02 ;     C4 - C6     - C5    
     4      6     18      1    1.0968e+02    3.6208e+02 ;     C4 - C6     - H11   
     4      6     19      1    1.0968e+02    3.6208e+02 ;     C4 - C6     - H12   
     5      3     11      1    1.0968e+02    3.6208e+02 ;     C5 - C3     - H4    
     5      3     12      1    1.0968e+02    3.6208e+02 ;     C5 - C3     - H5    
     5      3     13      1    1.0968e+02    3.6208e+02 ;     C5 - C3     - H6    
     5      6     18      1    1.0968e+02    3.6208e+02 ;     C5 - C6     - H11   
     5      6     19      1    1.0968e+02    3.6208e+02 ;     C5 - C6     - H12   
     6      4     14      1    1.0968e+02    3.6208e+02 ;     C6 - C4     - H7    
     6      4     15      1    1.0968e+02    3.6208e+02 ;     C6 - C4     - H8    
     6      5     16      1    1.0968e+02    3.6208e+02 ;     C6 - C5     - H9    
     6      5     17      1    1.0968e+02    3.6208e+02 ;     C6 - C5     - H10   
     8      2      9      1    1.0773e+02    2.9957e+02 ;     H1 - C2     - H2    
     8      2     10      1    1.0773e+02    2.9957e+02 ;     H1 - C2     - H3    
     9      2     10      1    1.0773e+02    2.9957e+02 ;     H2 - C2     - H3    
    11      3     12      1    1.0773e+02    2.9957e+02 ;     H4 - C3     - H5    
    11      3     13      1    1.0773e+02    2.9957e+02 ;     H4 - C3     - H6    
    12      3     13      1    1.0773e+02    2.9957e+02 ;     H5 - C3     - H6    
    14      4     15      1    1.0773e+02    2.9957e+02 ;     H7 - C4     - H8    
    16      5     17      1    1.0773e+02    2.9957e+02 ;     H9 - C5     - H10   
    18      6     19      1    1.0773e+02    2.9957e+02 ;    H11 - C6     - H12   

[ dihedrals ] ; propers
; for gromacs 4.5 or higher, using funct 9
;    i      j      k      l   func   phase     kd      pn
     1      4      6      5      9     0.00   0.00000   0 ;     C1-    C4-    C6-    C5
     1      4      6      5      9     0.00   0.16736   2 ;     C1-    C4-    C6-    C5
     1      4      6      5      9   180.00   1.92464   1 ;     C1-    C4-    C6-    C5
     1      4      6     18      9     0.00   0.65084   3 ;     C1-    C4-    C6-   H11
     1      4      6     19      9     0.00   0.65084   3 ;     C1-    C4-    C6-   H12
     2      1      4      6      9   180.00   1.09621   2 ;     C2-    C1-    C4-    C6
     2      1      4     14      9   180.00   0.00000   3 ;     C2-    C1-    C4-    H7
     2      1      4     15      9   180.00   0.00000   3 ;     C2-    C1-    C4-    H8
     3      5      6      4      9     0.00   2.17568   3 ;     C3-    C5-    C6-    C4
     3      5      6     18      9     0.00   0.54392   3 ;     C3-    C5-    C6-   H11
     3      5      6     19      9     0.00   0.54392   3 ;     C3-    C5-    C6-   H12
     4      1      2      8      9   180.00   0.00000   3 ;     C4-    C1-    C2-    H1
     4      1      2      9      9   180.00   0.00000   3 ;     C4-    C1-    C2-    H2
     4      1      2     10      9   180.00   0.00000   3 ;     C4-    C1-    C2-    H3
     4      6      5     16      9     0.00   0.54392   3 ;     C4-    C6-    C5-    H9
     4      6      5     17      9     0.00   0.54392   3 ;     C4-    C6-    C5-   H10
     5      6      4     14      9     0.00   0.54392   3 ;     C5-    C6-    C4-    H7
     5      6      4     15      9     0.00   0.54392   3 ;     C5-    C6-    C4-    H8
     6      5      3     11      9     0.00   0.54392   3 ;     C6-    C5-    C3-    H4
     6      5      3     12      9     0.00   0.54392   3 ;     C6-    C5-    C3-    H5
     6      5      3     13      9     0.00   0.54392   3 ;     C6-    C5-    C3-    H6
     7      1      2      8      9     0.00  16.86152   1 ;     O1-    C1-    C2-    H1
     7      1      2      8      9   180.00  15.31344   2 ;     O1-    C1-    C2-    H1
     7      1      2      9      9     0.00  16.86152   1 ;     O1-    C1-    C2-    H2
     7      1      2      9      9   180.00  15.31344   2 ;     O1-    C1-    C2-    H2
     7      1      2     10      9     0.00  16.86152   1 ;     O1-    C1-    C2-    H3
     7      1      2     10      9   180.00  15.31344   2 ;     O1-    C1-    C2-    H3
     7      1      4      6      9     0.00   2.84512   1 ;     O1-    C1-    C4-    C6
     7      1      4      6      9   180.00   0.83680   2 ;     O1-    C1-    C4-    C6
     7      1      4      6      9   180.00   1.84096   3 ;     O1-    C1-    C4-    C6
     7      1      4     14      9     0.00  16.86152   1 ;     O1-    C1-    C4-    H7
     7      1      4     14      9   180.00  15.31344   2 ;     O1-    C1-    C4-    H7
     7      1      4     15      9     0.00  16.86152   1 ;     O1-    C1-    C4-    H8
     7      1      4     15      9   180.00  15.31344   2 ;     O1-    C1-    C4-    H8
    11      3      5     16      9     0.00   0.50208   3 ;     H4-    C3-    C5-    H9
    11      3      5     17      9     0.00   0.50208   3 ;     H4-    C3-    C5-   H10
    12      3      5     16      9     0.00   0.50208   3 ;     H5-    C3-    C5-    H9
    12      3      5     17      9     0.00   0.50208   3 ;     H5-    C3-    C5-   H10
    13      3      5     16      9     0.00   0.50208   3 ;     H6-    C3-    C5-    H9
    13      3      5     17      9     0.00   0.50208   3 ;     H6-    C3-    C5-   H10
    14      4      6     18      9     0.00   0.50208   3 ;     H7-    C4-    C6-   H11
    14      4      6     19      9     0.00   0.50208   3 ;     H7-    C4-    C6-   H12
    15      4      6     18      9     0.00   0.50208   3 ;     H8-    C4-    C6-   H11
    15      4      6     19      9     0.00   0.50208   3 ;     H8-    C4-    C6-   H12
    16      5      6     18      9     0.00   0.50208   3 ;     H9-    C5-    C6-   H11
    16      5      6     19      9     0.00   0.50208   3 ;     H9-    C5-    C6-   H12
    17      5      6     18      9     0.00   0.50208   3 ;    H10-    C5-    C6-   H11
    17      5      6     19      9     0.00   0.50208   3 ;    H10-    C5-    C6-   H12

[ dihedrals ] ; impropers
; treated as propers in GROMACS to use correct AMBER analytical function
;    i      j      k      l   func   phase     kd      pn
     7      1      4      2      4   180.00   4.60240   2 ;     O1-    C1-    C4-    C2
