; mobley_2487143_GMX_OPLS.top created by acpype (v: 2023.10.27) on Wed May 20 23:59:29 2026

; Include forcefield parameters
#include "ffoplsaa.itp"

; Include mobley_2487143_GMX.itp topology
#include "mobley_2487143_GMX.itp"

; Ligand position restraints
#ifdef POSRES_LIG
#include "posre_mobley_2487143.itp"
#endif

[ system ]
 mobley_2487143

[ molecules ]
; Compound        nmols
 mobley_2487143   1     
