hexan_2_one
    19
   1.0520000  -1.1530000   1.4360000   0.6250000   0.1470000   0.8060000
   3.1880000  -5.7100000   0.9830000   1.7900000  -2.1230000   0.5290000
   2.8590000  -4.3960000   0.2920000   2.1540000  -3.4260000   1.2380000
   0.8080000  -1.3970000   2.6160000   1.5050000   0.6890000   0.4520000
  -0.0550000  -0.0540000  -0.0250000   0.1050000   0.7620000   1.5470000
   2.2790000  -6.2030000   1.3410000   3.6910000  -6.3880000   0.2880000
   3.8510000  -5.5470000   1.8390000   2.6990000  -1.6260000   0.1730000
   1.1470000  -2.3340000  -0.3320000   2.2230000  -4.5970000  -0.5780000
   3.7850000  -3.9450000  -0.0820000   2.8010000  -3.2110000   2.0970000
   1.2450000  -3.8940000   1.6380000
