p_dibromobenzene
    12
   0.8180000  -0.4390000   0.5640000   0.7990000  -0.4060000   1.9590000
   2.9370000  -1.5970000   0.6200000   2.9180000  -1.5650000   2.0140000
   1.8870000  -1.0340000  -0.1050000   1.8500000  -0.9690000   2.6840000
   1.9120000  -1.0780000  -1.9940000   1.8250000  -0.9250000   4.5730000
  -0.0080000   0.0040000   0.0140000  -0.0410000   0.0620000   2.4660000
   3.7770000  -2.0650000   0.1130000   3.7440000  -2.0080000   2.5640000
