; mobley_7150646_GMX_OPLS.itp created by acpype (v: 2023.10.27) on Wed May 20 23:44:44 2026

; For OPLS atomtypes manual fine tuning
; AC_at:OPLS_at:OPLScode: Possible_Alternatives (see ffoplsaa.atp and ffoplsaanb.itp)
; ca:CA:opls_145: ['166', '501', '502']
; br:x:opls_x: []
; ha:HA:opls_146: []

[ moleculetype ]
;name            nrexcl
 mobley_7150646   3

[ atoms ]
;   nr  type  resi  res  atom  cgnr     charge      mass       ; qtot   bond_type
     1 opls_145     1   MOL    C1    1    -0.104000     12.01100 ; qtot -0.104  CA  
     2 opls_145     1   MOL    C2    2    -0.104000     12.01100 ; qtot -0.208  CA  
     3 opls_145     1   MOL    C3    3    -0.104000     12.01100 ; qtot -0.312  CA  
     4 opls_145     1   MOL    C4    4    -0.104000     12.01100 ; qtot -0.416  CA  
     5 opls_145     1   MOL    C5    5    -0.016900     12.01100 ; qtot -0.433  CA  
     6 opls_145     1   MOL    C6    6    -0.016900     12.01100 ; qtot -0.450  CA  
     7 opls_x     1   MOL   BR1    7    -0.079100      0.00000 ; qtot -0.529  x   
     8 opls_x     1   MOL   BR2    8    -0.079100      0.00000 ; qtot -0.608  x   
     9 opls_146     1   MOL    H1    9     0.152000      1.00800 ; qtot -0.456  HA  
    10 opls_146     1   MOL    H2   10     0.152000      1.00800 ; qtot -0.304  HA  
    11 opls_146     1   MOL    H3   11     0.152000      1.00800 ; qtot -0.152  HA  
    12 opls_146     1   MOL    H4   12     0.152000      1.00800 ; qtot  0.000  HA  

[ bonds ]
;   ai     aj funct   r             k
     1      2   1 ;    1.3986e-01    2.9644e+05 ;     C1 - C2         CA - CA    
     1      5   1 ;    1.3986e-01    2.9644e+05 ;     C1 - C5         CA - CA    
     1      9   1 ;    1.0860e-01    3.0183e+05 ;     C1 - H1         CA - HA    
     2      6   1 ;    1.3986e-01    2.9644e+05 ;     C2 - C6         CA - CA    
     2     10   1 ;    1.0860e-01    3.0183e+05 ;     C2 - H2         CA - HA    
     3      4   1 ;    1.3986e-01    2.9644e+05 ;     C3 - C4         CA - CA    
     3      5   1 ;    1.3986e-01    2.9644e+05 ;     C3 - C5         CA - CA    
     3     11   1 ;    1.0860e-01    3.0183e+05 ;     C3 - H3         CA - HA    
     4      6   1 ;    1.3986e-01    2.9644e+05 ;     C4 - C6         CA - CA    
     4     12   1 ;    1.0860e-01    3.0183e+05 ;     C4 - H4         CA - HA    
     5      7   1 ;    1.9117e-01    1.2175e+05 ;     C5 - BR1        CA - x     
     6      8   1 ;    1.9117e-01    1.2175e+05 ;     C6 - BR2        CA - x     

[ pairs ]
;   ai     aj    funct
     1      4      1 ;     C1 - C4    
     1      8      1 ;     C1 - BR2   
     1     11      1 ;     C1 - H3    
     2      3      1 ;     C2 - C3    
     2      7      1 ;     C2 - BR1   
     2     12      1 ;     C2 - H4    
     3      8      1 ;     C3 - BR2   
     4      7      1 ;     C4 - BR1   
     4     10      1 ;     C4 - H2    
     5      6      1 ;     C5 - C6    
     5     10      1 ;     C5 - H2    
     5     12      1 ;     C5 - H4    
     6     11      1 ;     C6 - H3    
     7     11      1 ;    BR1 - H3    
     8     10      1 ;    BR2 - H2    
     8     12      1 ;    BR2 - H4    
     9      3      1 ;     H1 - C3    
     9      6      1 ;     H1 - C6    
     9      7      1 ;     H1 - BR1   
     9     10      1 ;     H1 - H2    
    11     12      1 ;     H3 - H4    

[ angles ]
;   ai     aj     ak    funct   theta         cth
     1      2      6      1 ;    1.2002e+02    5.3279e+02 ;     C1 - C2   - C6       CA -   CA - CA  
     1      2     10      1 ;    1.1988e+02    3.7572e+02 ;     C1 - C2   - H2       CA -   CA - HA  
     1      5      3      1 ;    1.2002e+02    5.3279e+02 ;     C1 - C5   - C3       CA -   CA - CA  
     1      5      7      1 ;    1.1931e+02    5.1313e+02 ;     C1 - C5   - BR1      CA -   CA - x   
     2      1      5      1 ;    1.2002e+02    5.3279e+02 ;     C2 - C1   - C5       CA -   CA - CA  
     2      1      9      1 ;    1.1988e+02    3.7572e+02 ;     C2 - C1   - H1       CA -   CA - HA  
     2      6      4      1 ;    1.2002e+02    5.3279e+02 ;     C2 - C6   - C4       CA -   CA - CA  
     2      6      8      1 ;    1.1931e+02    5.1313e+02 ;     C2 - C6   - BR2      CA -   CA - x   
     3      4      6      1 ;    1.2002e+02    5.3279e+02 ;     C3 - C4   - C6       CA -   CA - CA  
     3      4     12      1 ;    1.1988e+02    3.7572e+02 ;     C3 - C4   - H4       CA -   CA - HA  
     3      5      7      1 ;    1.1931e+02    5.1313e+02 ;     C3 - C5   - BR1      CA -   CA - x   
     4      3      5      1 ;    1.2002e+02    5.3279e+02 ;     C4 - C3   - C5       CA -   CA - CA  
     4      3     11      1 ;    1.1988e+02    3.7572e+02 ;     C4 - C3   - H3       CA -   CA - HA  
     4      6      8      1 ;    1.1931e+02    5.1313e+02 ;     C4 - C6   - BR2      CA -   CA - x   
     5      1      9      1 ;    1.1988e+02    3.7572e+02 ;     C5 - C1   - H1       CA -   CA - HA  
     5      3     11      1 ;    1.1988e+02    3.7572e+02 ;     C5 - C3   - H3       CA -   CA - HA  
     6      2     10      1 ;    1.1988e+02    3.7572e+02 ;     C6 - C2   - H2       CA -   CA - HA  
     6      4     12      1 ;    1.1988e+02    3.7572e+02 ;     C6 - C4   - H4       CA -   CA - HA  

[ dihedrals ] ; propers
; for gromacs 4.5 or higher, using funct 9
;    i      j      k      l   func   phase     kd      pn
     1      2      6      4      9 ;   180.00  15.16700   2 ;     C1-    C2-    C6-    C4
     1      2      6      8      9 ;   180.00  15.16700   2 ;     C1-    C2-    C6-   BR2
     1      5      3      4      9 ;   180.00  15.16700   2 ;     C1-    C5-    C3-    C4
     1      5      3     11      9 ;   180.00  15.16700   2 ;     C1-    C5-    C3-    H3
     2      1      5      3      9 ;   180.00  15.16700   2 ;     C2-    C1-    C5-    C3
     2      1      5      7      9 ;   180.00  15.16700   2 ;     C2-    C1-    C5-   BR1
     2      6      4      3      9 ;   180.00  15.16700   2 ;     C2-    C6-    C4-    C3
     2      6      4     12      9 ;   180.00  15.16700   2 ;     C2-    C6-    C4-    H4
     3      4      6      8      9 ;   180.00  15.16700   2 ;     C3-    C4-    C6-   BR2
     4      3      5      7      9 ;   180.00  15.16700   2 ;     C4-    C3-    C5-   BR1
     4      6      2     10      9 ;   180.00  15.16700   2 ;     C4-    C6-    C2-    H2
     5      1      2      6      9 ;   180.00  15.16700   2 ;     C5-    C1-    C2-    C6
     5      1      2     10      9 ;   180.00  15.16700   2 ;     C5-    C1-    C2-    H2
     5      3      4      6      9 ;   180.00  15.16700   2 ;     C5-    C3-    C4-    C6
     5      3      4     12      9 ;   180.00  15.16700   2 ;     C5-    C3-    C4-    H4
     6      4      3     11      9 ;   180.00  15.16700   2 ;     C6-    C4-    C3-    H3
     7      5      3     11      9 ;   180.00  15.16700   2 ;    BR1-    C5-    C3-    H3
     8      6      2     10      9 ;   180.00  15.16700   2 ;    BR2-    C6-    C2-    H2
     8      6      4     12      9 ;   180.00  15.16700   2 ;    BR2-    C6-    C4-    H4
     9      1      2      6      9 ;   180.00  15.16700   2 ;     H1-    C1-    C2-    C6
     9      1      2     10      9 ;   180.00  15.16700   2 ;     H1-    C1-    C2-    H2
     9      1      5      3      9 ;   180.00  15.16700   2 ;     H1-    C1-    C5-    C3
     9      1      5      7      9 ;   180.00  15.16700   2 ;     H1-    C1-    C5-   BR1
    11      3      4     12      9 ;   180.00  15.16700   2 ;     H3-    C3-    C4-    H4

[ dihedrals ] ; impropers
; treated as propers in GROMACS to use correct AMBER analytical function
;    i      j      k      l   func   phase     kd      pn
     1      3      5      7      4 ;   180.00   4.60240   2 ;     C1-    C3-    C5-   BR1
     1      6      2     10      4 ;   180.00   4.60240   2 ;     C1-    C6-    C2-    H2
     3      6      4     12      4 ;   180.00   4.60240   2 ;     C3-    C6-    C4-    H4
     4      5      3     11      4 ;   180.00   4.60240   2 ;     C4-    C5-    C3-    H3
     8      2      6      4      4 ;   180.00   4.60240   2 ;    BR2-    C2-    C6-    C4
     9      1      5      2      4 ;   180.00   4.60240   2 ;     H1-    C1-    C5-    C2
