mobley_7150646_GMX.gro created by acpype (v: 2023.10.27) on Wed May 20 23:44:44 2026
 12
    1  MOL   C1    1   0.082  -0.044   0.056
    1  MOL   C2    2   0.080  -0.041   0.196
    1  MOL   C3    3   0.294  -0.160   0.062
    1  MOL   C4    4   0.292  -0.157   0.201
    1  MOL   C5    5   0.189  -0.103  -0.011
    1  MOL   C6    6   0.185  -0.097   0.268
    1  MOL  BR1    7   0.191  -0.108  -0.199
    1  MOL  BR2    8   0.182  -0.093   0.457
    1  MOL   H1    9  -0.001   0.000   0.001
    1  MOL   H2   10  -0.004   0.006   0.247
    1  MOL   H3   11   0.378  -0.207   0.011
    1  MOL   H4   12   0.374  -0.201   0.256
    7.63600     4.25400    13.13400
