mobley_3323117_GMX.gro created by acpype (v: 2023.10.27) on Thu May 21 00:04:10 2026
 15
    1  MOL   C1    1   0.034   0.048   0.093
    1  MOL   C2    2  -0.081   0.052   0.193
    1  MOL   C3    3   0.144  -0.035   0.157
    1  MOL   C4    4  -0.104  -0.092   0.237
    1  MOL   O1    5   0.103  -0.164   0.383
    1  MOL   O2    6   0.060  -0.285   0.164
    1  MOL   S1    7   0.059  -0.165   0.245
    1  MOL   H1    8  -0.000   0.000   0.000
    1  MOL   H2    9   0.069   0.149   0.067
    1  MOL   H3   10  -0.052   0.113   0.280
    1  MOL   H4   11  -0.172   0.096   0.150
    1  MOL   H5   12   0.212  -0.078   0.084
    1  MOL   H6   13   0.200   0.024   0.230
    1  MOL   H7   14  -0.153  -0.099   0.334
    1  MOL   H8   15  -0.161  -0.147   0.162
    7.67600     8.67200     7.66400
