%VERSION  VERSION_STAMP = V0001.000  DATE = 05/21/26  00:04:11                  
%FLAG TITLE                                                                     
%FORMAT(20a4)                                                                   
sulfolane                                                                       
%FLAG POINTERS                                                                  
%FORMAT(10I8)                                                                   
      15       5       8       7      20      10      36       9       0       0
      87       1       7      10       9       5      10       6       5       0
       0       0       0       0       0       0       0       0      15       0
       0
%FLAG ATOM_NAME                                                                 
%FORMAT(20a4)                                                                   
C1  C2  C3  C4  O1  O2  S1  H1  H2  H3  H4  H5  H6  H7  H8  
%FLAG CHARGE                                                                    
%FORMAT(5E16.8)                                                                 
 -9.91293120E-01 -9.91293120E-01 -5.73273558E+00 -5.73273558E+00 -1.18772951E+01
 -1.18772951E+01  2.38712130E+01  1.08787131E+00  1.08787131E+00  1.08787131E+00
  1.08787131E+00  2.25409851E+00  2.25409851E+00  2.25409851E+00  2.25409851E+00
%FLAG ATOMIC_NUMBER                                                             
%FORMAT(10I8)                                                                   
       6       6       6       6       8       8      16       1       1       1
       1       1       1       1       1
%FLAG MASS                                                                      
%FORMAT(5E16.8)                                                                 
  1.20100000E+01  1.20100000E+01  1.20100000E+01  1.20100000E+01  1.60000000E+01
  1.60000000E+01  3.20600000E+01  1.00800000E+00  1.00800000E+00  1.00800000E+00
  1.00800000E+00  1.00800000E+00  1.00800000E+00  1.00800000E+00  1.00800000E+00
%FLAG ATOM_TYPE_INDEX                                                           
%FORMAT(10I8)                                                                   
       1       1       1       1       2       2       3       4       4       4
       4       5       5       5       5
%FLAG NUMBER_EXCLUDED_ATOMS                                                     
%FORMAT(10I8)                                                                   
      14      13      12      11       6       5       8       5       4       3
       2       1       1       1       1
%FLAG NONBONDED_PARM_INDEX                                                      
%FORMAT(10I8)                                                                   
       1       2       4       7      11       2       3       5       8      12
       4       5       6       9      13       7       8       9      10      14
      11      12      13      14      15
%FLAG RESIDUE_LABEL                                                             
%FORMAT(20a4)                                                                   
MOL 
%FLAG RESIDUE_POINTER                                                           
%FORMAT(10I8)                                                                   
       1
%FLAG BOND_FORCE_CONSTANT                                                       
%FORMAT(5E16.8)                                                                 
  2.20100000E+02  3.46430000E+02  1.71830000E+02  3.43780000E+02  6.14490000E+02
%FLAG BOND_EQUIL_VALUE                                                          
%FORMAT(5E16.8)                                                                 
  1.54830000E+00  1.09540000E+00  1.86940000E+00  1.09720000E+00  1.46570000E+00
%FLAG ANGLE_FORCE_CONSTANT                                                      
%FORMAT(5E16.8)                                                                 
  6.18400000E+01  4.26500000E+01  6.36400000E+01  4.26500000E+01  9.33900000E+01
  1.15620000E+02  1.58500000E+02  4.16700000E+01  3.59100000E+01  3.57000000E+01
%FLAG ANGLE_EQUIL_VALUE                                                         
%FORMAT(5E16.8)                                                                 
  1.81217614E+00  1.94028336E+00  1.82928037E+00  1.94028336E+00  1.66015790E+00
  1.92056113E+00  2.09806119E+00  1.86785217E+00  1.87134283E+00  1.88722533E+00
%FLAG DIHEDRAL_FORCE_CONSTANT                                                   
%FORMAT(5E16.8)                                                                 
  1.55555556E-01  1.44444444E-01  5.20000000E-01  1.30000000E-01  0.00000000E+00
  1.20000000E-01
%FLAG DIHEDRAL_PERIODICITY                                                      
%FORMAT(5E16.8)                                                                 
  3.00000000E+00  3.00000000E+00  3.00000000E+00  3.00000000E+00  3.00000000E+00
  3.00000000E+00
%FLAG DIHEDRAL_PHASE                                                            
%FORMAT(5E16.8)                                                                 
  0.00000000E+00  0.00000000E+00  0.00000000E+00  0.00000000E+00  3.14159400E+00
  0.00000000E+00
%FLAG SCEE_SCALE_FACTOR                                                         
%FORMAT(5E16.8)                                                                 
  1.20000000E+00  1.20000000E+00  1.20000000E+00  1.20000000E+00  1.20000000E+00
  1.20000000E+00
%FLAG SCNB_SCALE_FACTOR                                                         
%FORMAT(5E16.8)                                                                 
  2.00000000E+00  2.00000000E+00  2.00000000E+00  2.00000000E+00  2.00000000E+00
  2.00000000E+00
%FLAG SOLTY                                                                     
%FORMAT(5E16.8)                                                                 
  0.00000000E+00  0.00000000E+00  0.00000000E+00  0.00000000E+00  0.00000000E+00
%FLAG LENNARD_JONES_ACOEF                                                       
%FORMAT(5E16.8)                                                                 
  1.02073671E+06  6.30925504E+05  3.76435470E+05  2.34552991E+06  1.53564503E+06
  4.90327872E+06  1.00235148E+05  5.68021765E+04  2.65089806E+05  7.94617769E+03
  6.97998263E+04  3.86646725E+04  1.91441225E+05  5.22955465E+03  3.39005767E+03
%FLAG LENNARD_JONES_BCOEF                                                       
%FORMAT(5E16.8)                                                                 
  6.63431737E+02  5.62969425E+02  4.69350655E+02  8.73669684E+02  7.63007119E+02
  1.09738109E+03  1.37787728E+02  1.11953944E+02  1.94663459E+02  2.57122925E+01
  1.14981426E+02  9.23664132E+01  1.65426719E+02  2.08590256E+01  1.67944276E+01
%FLAG BONDS_INC_HYDROGEN                                                        
%FORMAT(10I8)                                                                   
       0      21       2       0      24       2       3      27       2       3
      30       2       6      33       4       6      36       4       9      39
       4       9      42       4
%FLAG BONDS_WITHOUT_HYDROGEN                                                    
%FORMAT(10I8)                                                                   
       0       3       1       0       6       1       3       9       1       6
      18       3       9      18       3      12      18       5      15      18
       5
%FLAG ANGLES_INC_HYDROGEN                                                       
%FORMAT(10I8)                                                                   
       0       3      27       2       0       3      30       2       0       6
      33       4       0       6      36       4       3       0      21       2
       3       0      24       2       3       9      39       4       3       9
      42       4       6       0      21       2       6       0      24       2
       9       3      27       2       9       3      30       2      18       6
      33       8      18       6      36       8      18       9      39       8
      18       9      42       8      21       0      24       9      27       3
      30       9      33       6      36      10      39       9      42      10
%FLAG ANGLES_WITHOUT_HYDROGEN                                                   
%FORMAT(10I8)                                                                   
       0       3       9       1       0       6      18       3       3       0
       6       1       3       9      18       3       6      18       9       5
       6      18      12       6       6      18      15       6       9      18
      12       6       9      18      15       6      12      18      15       7
%FLAG DIHEDRALS_INC_HYDROGEN                                                    
%FORMAT(10I8)                                                                   
       0       3       9      39       1       0       3       9      42       1
       3       0       6      33       1       3       0       6      36       1
       6       0       3      27       4       6       0       3      30       4
       6      18       9      39       5       6      18       9      42       5
      21       0       3       9       4      24       0       3       9       4
       9      18       6      33       5       9      18       6      36       5
      12      18       6      33       2      12      18       6      36       2
      12      18       9      39       2      12      18       9      42       2
      15      18       6      33       2      15      18       6      36       2
      15      18       9      39       2      15      18       9      42       2
      21       0       6      18       1      24       0       6      18       1
      18       9       3      27       1      18       9       3      30       1
      21       0       3      27       6      21       0       3      30       6
      21       0       6      33       1      21       0       6      36       1
      24       0       3      27       6      24       0       3      30       6
      24       0       6      33       1      24       0       6      36       1
      27       3       9      39       1      27       3       9      42       1
      30       3       9      39       1      30       3       9      42       1
%FLAG DIHEDRALS_WITHOUT_HYDROGEN                                                
%FORMAT(10I8)                                                                   
       0       3      -9      18       1       0       6     -18       9       2
       0       6      18      12       2       0       6      18      15       2
       3       0      -6      18       1       3       9     -18       6       2
       3       9      18      12       2       3       9      18      15       2
       6       0      -3       9       3
%FLAG EXCLUDED_ATOMS_LIST                                                       
%FORMAT(10I8)                                                                   
       2       3       4       5       6       7       8       9      10      11
      12      13      14      15       3       4       5       6       7       8
       9      10      11      12      13      14      15       4       5       6
       7       8       9      10      11      12      13      14      15       5
       6       7       8       9      10      11      12      13      14      15
       6       7      12      13      14      15       7      12      13      14
      15       8       9      10      11      12      13      14      15       9
      10      11      12      13      10      11      12      13      11      14
      15      14      15      13       0      15       0
%FLAG HBOND_ACOEF                                                               
%FORMAT(5E16.8)                                                                 

%FLAG HBOND_BCOEF                                                               
%FORMAT(5E16.8)                                                                 

%FLAG HBCUT                                                                     
%FORMAT(5E16.8)                                                                 

%FLAG AMBER_ATOM_TYPE                                                           
%FORMAT(20a4)                                                                   
c5  c5  c5  c5  o   o   s6  hc  hc  hc  hc  h1  h1  h1  h1  
%FLAG TREE_CHAIN_CLASSIFICATION                                                 
%FORMAT(20a4)                                                                   
BLA BLA BLA BLA BLA BLA BLA BLA BLA BLA BLA BLA BLA BLA BLA 
%FLAG JOIN_ARRAY                                                                
%FORMAT(10I8)                                                                   
       0       0       0       0       0       0       0       0       0       0
       0       0       0       0       0
%FLAG IROTAT                                                                    
%FORMAT(10I8)                                                                   
       0       0       0       0       0       0       0       0       0       0
       0       0       0       0       0
%FLAG RADIUS_SET                                                                
%FORMAT(1a80)                                                                   
modified Bondi radii (mbondi)                                                   
%FLAG RADII                                                                     
%FORMAT(5E16.8)                                                                 
  1.70000000E+00  1.70000000E+00  1.70000000E+00  1.70000000E+00  1.50000000E+00
  1.50000000E+00  1.80000000E+00  1.30000000E+00  1.30000000E+00  1.30000000E+00
  1.30000000E+00  1.30000000E+00  1.30000000E+00  1.30000000E+00  1.30000000E+00
%FLAG SCREEN                                                                    
%FORMAT(5E16.8)                                                                 
  7.20000000E-01  7.20000000E-01  7.20000000E-01  7.20000000E-01  8.50000000E-01
  8.50000000E-01  9.60000000E-01  8.50000000E-01  8.50000000E-01  8.50000000E-01
  8.50000000E-01  8.50000000E-01  8.50000000E-01  8.50000000E-01  8.50000000E-01
%FLAG IPOL                                                                      
%FORMAT(1I8)                                                                    
       0
