; mobley_3323117_GMX.top created by acpype (v: 2023.10.27) on Thu May 21 00:04:10 2026

[ defaults ]
; nbfunc        comb-rule       gen-pairs       fudgeLJ fudgeQQ
1               2               yes             0.5     0.8333333333

; Include mobley_3323117_GMX.itp topology
#include "mobley_3323117_GMX.itp"

; Ligand position restraints
#ifdef POSRES_LIG
#include "posre_mobley_3323117.itp"
#endif

[ system ]
mobley_3323117 in water

[ molecules ]
; Compound        nmols
 mobley_3323117   1     
SOL              2870
