; mobley_3323117_GMX_OPLS.top created by acpype (v: 2023.10.27) on Thu May 21 00:04:10 2026

; Include forcefield parameters
#include "ffoplsaa.itp"

; Include mobley_3323117_GMX.itp topology
#include "mobley_3323117_GMX.itp"

; Ligand position restraints
#ifdef POSRES_LIG
#include "posre_mobley_3323117.itp"
#endif

[ system ]
 mobley_3323117

[ molecules ]
; Compound        nmols
 mobley_3323117   1     
