; mobley_3323117_GMX_OPLS.itp created by acpype (v: 2023.10.27) on Thu May 21 00:04:10 2026

; For OPLS atomtypes manual fine tuning
; AC_at:OPLS_at:OPLScode: Possible_Alternatives (see ffoplsaa.atp and ffoplsaanb.itp)
; c5:x:opls_x: []
; o:O:opls_236: ['272']
; s6:x:opls_x: []
; hc:HC:opls_140: []
; h1:HC:opls_140: []

[ moleculetype ]
;name            nrexcl
 mobley_3323117   3

[ atoms ]
;   nr  type  resi  res  atom  cgnr     charge      mass       ; qtot   bond_type
     1 opls_x     1   MOL    C1    1    -0.054400      0.00000 ; qtot -0.054  x   
     2 opls_x     1   MOL    C2    2    -0.054400      0.00000 ; qtot -0.109  x   
     3 opls_x     1   MOL    C3    3    -0.314600      0.00000 ; qtot -0.423  x   
     4 opls_x     1   MOL    C4    4    -0.314600      0.00000 ; qtot -0.738  x   
     5 opls_236     1   MOL    O1    5    -0.651800     15.99940 ; qtot -1.390  O   
     6 opls_236     1   MOL    O2    6    -0.651800     15.99940 ; qtot -2.042  O   
     7 opls_x     1   MOL    S1    7     1.308000      0.00000 ; qtot -0.734  x   
     8 opls_140     1   MOL    H1    8     0.059700      1.00800 ; qtot -0.674  HC  
     9 opls_140     1   MOL    H2    9     0.059700      1.00800 ; qtot -0.614  HC  
    10 opls_140     1   MOL    H3   10     0.059700      1.00800 ; qtot -0.555  HC  
    11 opls_140     1   MOL    H4   11     0.059700      1.00800 ; qtot -0.495  HC  
    12 opls_140     1   MOL    H5   12     0.123700      1.00800 ; qtot -0.371  HC  
    13 opls_140     1   MOL    H6   13     0.123700      1.00800 ; qtot -0.247  HC  
    14 opls_140     1   MOL    H7   14     0.123700      1.00800 ; qtot -0.124  HC  
    15 opls_140     1   MOL    H8   15     0.123700      1.00800 ; qtot -0.000  HC  

[ bonds ]
;   ai     aj funct   r             k
     1      2   1 ;    1.5483e-01    1.8418e+05 ;     C1 - C2          x - x     
     1      3   1 ;    1.5483e-01    1.8418e+05 ;     C1 - C3          x - x     
     1      8   1 ;    1.0954e-01    2.8989e+05 ;     C1 - H1          x - HC    
     1      9   1 ;    1.0954e-01    2.8989e+05 ;     C1 - H2          x - HC    
     2      4   1 ;    1.5483e-01    1.8418e+05 ;     C2 - C4          x - x     
     2     10   1 ;    1.0954e-01    2.8989e+05 ;     C2 - H3          x - HC    
     2     11   1 ;    1.0954e-01    2.8989e+05 ;     C2 - H4          x - HC    
     3      7   1 ;    1.8694e-01    1.4379e+05 ;     C3 - S1          x - x     
     3     12   1 ;    1.0972e-01    2.8768e+05 ;     C3 - H5          x - HC    
     3     13   1 ;    1.0972e-01    2.8768e+05 ;     C3 - H6          x - HC    
     4      7   1 ;    1.8694e-01    1.4379e+05 ;     C4 - S1          x - x     
     4     14   1 ;    1.0972e-01    2.8768e+05 ;     C4 - H7          x - HC    
     4     15   1 ;    1.0972e-01    2.8768e+05 ;     C4 - H8          x - HC    
     5      7   1 ;    1.4657e-01    5.1421e+05 ;     O1 - S1          O - x     
     6      7   1 ;    1.4657e-01    5.1421e+05 ;     O2 - S1          O - x     

[ pairs ]
;   ai     aj    funct
     1      5      1 ;     C1 - O1    
     1      6      1 ;     C1 - O2    
     1     14      1 ;     C1 - H7    
     1     15      1 ;     C1 - H8    
     2      5      1 ;     C2 - O1    
     2      6      1 ;     C2 - O2    
     2     12      1 ;     C2 - H5    
     2     13      1 ;     C2 - H6    
     3     10      1 ;     C3 - H3    
     3     11      1 ;     C3 - H4    
     3     14      1 ;     C3 - H7    
     3     15      1 ;     C3 - H8    
     4     12      1 ;     C4 - H5    
     4     13      1 ;     C4 - H6    
     5     12      1 ;     O1 - H5    
     5     13      1 ;     O1 - H6    
     5     14      1 ;     O1 - H7    
     5     15      1 ;     O1 - H8    
     6     12      1 ;     O2 - H5    
     6     13      1 ;     O2 - H6    
     6     14      1 ;     O2 - H7    
     6     15      1 ;     O2 - H8    
     7     10      1 ;     S1 - H3    
     7     11      1 ;     S1 - H4    
     8      4      1 ;     H1 - C4    
     8      7      1 ;     H1 - S1    
     8     10      1 ;     H1 - H3    
     8     11      1 ;     H1 - H4    
     8     12      1 ;     H1 - H5    
     8     13      1 ;     H1 - H6    
     9      4      1 ;     H2 - C4    
     9      7      1 ;     H2 - S1    
     9     10      1 ;     H2 - H3    
     9     11      1 ;     H2 - H4    
     9     12      1 ;     H2 - H5    
     9     13      1 ;     H2 - H6    
    10     14      1 ;     H3 - H7    
    10     15      1 ;     H3 - H8    
    11     14      1 ;     H4 - H7    
    11     15      1 ;     H4 - H8    

[ angles ]
;   ai     aj     ak    funct   theta         cth
     1      2      4      1 ;    1.0383e+02    5.1748e+02 ;     C1 - C2   - C4        x -    x - x   
     1      2     10      1 ;    1.1117e+02    3.5690e+02 ;     C1 - C2   - H3        x -    x - HC  
     1      2     11      1 ;    1.1117e+02    3.5690e+02 ;     C1 - C2   - H4        x -    x - HC  
     1      3      7      1 ;    1.0481e+02    5.3254e+02 ;     C1 - C3   - S1        x -    x - x   
     1      3     12      1 ;    1.1117e+02    3.5690e+02 ;     C1 - C3   - H5        x -    x - HC  
     1      3     13      1 ;    1.1117e+02    3.5690e+02 ;     C1 - C3   - H6        x -    x - HC  
     2      1      3      1 ;    1.0383e+02    5.1748e+02 ;     C2 - C1   - C3        x -    x - x   
     2      1      8      1 ;    1.1117e+02    3.5690e+02 ;     C2 - C1   - H1        x -    x - HC  
     2      1      9      1 ;    1.1117e+02    3.5690e+02 ;     C2 - C1   - H2        x -    x - HC  
     2      4      7      1 ;    1.0481e+02    5.3254e+02 ;     C2 - C4   - S1        x -    x - x   
     2      4     14      1 ;    1.1117e+02    3.5690e+02 ;     C2 - C4   - H7        x -    x - HC  
     2      4     15      1 ;    1.1117e+02    3.5690e+02 ;     C2 - C4   - H8        x -    x - HC  
     3      1      8      1 ;    1.1117e+02    3.5690e+02 ;     C3 - C1   - H1        x -    x - HC  
     3      1      9      1 ;    1.1117e+02    3.5690e+02 ;     C3 - C1   - H2        x -    x - HC  
     3      7      4      1 ;    9.5120e+01    7.8149e+02 ;     C3 - S1   - C4        x -    x - x   
     3      7      5      1 ;    1.1004e+02    9.6751e+02 ;     C3 - S1   - O1        x -    x - O   
     3      7      6      1 ;    1.1004e+02    9.6751e+02 ;     C3 - S1   - O2        x -    x - O   
     4      2     10      1 ;    1.1117e+02    3.5690e+02 ;     C4 - C2   - H3        x -    x - HC  
     4      2     11      1 ;    1.1117e+02    3.5690e+02 ;     C4 - C2   - H4        x -    x - HC  
     4      7      5      1 ;    1.1004e+02    9.6751e+02 ;     C4 - S1   - O1        x -    x - O   
     4      7      6      1 ;    1.1004e+02    9.6751e+02 ;     C4 - S1   - O2        x -    x - O   
     5      7      6      1 ;    1.2021e+02    1.3263e+03 ;     O1 - S1   - O2        O -    x - O   
     7      3     12      1 ;    1.0702e+02    3.4869e+02 ;     S1 - C3   - H5        x -    x - HC  
     7      3     13      1 ;    1.0702e+02    3.4869e+02 ;     S1 - C3   - H6        x -    x - HC  
     7      4     14      1 ;    1.0702e+02    3.4869e+02 ;     S1 - C4   - H7        x -    x - HC  
     7      4     15      1 ;    1.0702e+02    3.4869e+02 ;     S1 - C4   - H8        x -    x - HC  
     8      1      9      1 ;    1.0722e+02    3.0049e+02 ;     H1 - C1   - H2       HC -    x - HC  
    10      2     11      1 ;    1.0722e+02    3.0049e+02 ;     H3 - C2   - H4       HC -    x - HC  
    12      3     13      1 ;    1.0813e+02    2.9874e+02 ;     H5 - C3   - H6       HC -    x - HC  
    14      4     15      1 ;    1.0813e+02    2.9874e+02 ;     H7 - C4   - H8       HC -    x - HC  

[ dihedrals ] ; propers
; for gromacs 4.5 or higher, using funct 9
;    i      j      k      l   func   phase     kd      pn
     1      2      4      7      9 ;     0.00   0.65084   3 ;     C1-    C2-    C4-    S1
     1      2      4     14      9 ;     0.00   0.65084   3 ;     C1-    C2-    C4-    H7
     1      2      4     15      9 ;     0.00   0.65084   3 ;     C1-    C2-    C4-    H8
     1      3      7      4      9 ;     0.00   0.60436   3 ;     C1-    C3-    S1-    C4
     1      3      7      5      9 ;     0.00   0.60436   3 ;     C1-    C3-    S1-    O1
     1      3      7      6      9 ;     0.00   0.60436   3 ;     C1-    C3-    S1-    O2
     2      1      3      7      9 ;     0.00   0.65084   3 ;     C2-    C1-    C3-    S1
     2      1      3     12      9 ;     0.00   0.65084   3 ;     C2-    C1-    C3-    H5
     2      1      3     13      9 ;     0.00   0.65084   3 ;     C2-    C1-    C3-    H6
     2      4      7      3      9 ;     0.00   0.60436   3 ;     C2-    C4-    S1-    C3
     2      4      7      5      9 ;     0.00   0.60436   3 ;     C2-    C4-    S1-    O1
     2      4      7      6      9 ;     0.00   0.60436   3 ;     C2-    C4-    S1-    O2
     3      1      2      4      9 ;     0.00   2.17568   3 ;     C3-    C1-    C2-    C4
     3      1      2     10      9 ;     0.00   0.54392   3 ;     C3-    C1-    C2-    H3
     3      1      2     11      9 ;     0.00   0.54392   3 ;     C3-    C1-    C2-    H4
     3      7      4     14      9 ;   180.00   0.00000   3 ;     C3-    S1-    C4-    H7
     3      7      4     15      9 ;   180.00   0.00000   3 ;     C3-    S1-    C4-    H8
     4      7      3     12      9 ;   180.00   0.00000   3 ;     C4-    S1-    C3-    H5
     4      7      3     13      9 ;   180.00   0.00000   3 ;     C4-    S1-    C3-    H6
     5      7      3     12      9 ;     0.00   0.60436   3 ;     O1-    S1-    C3-    H5
     5      7      3     13      9 ;     0.00   0.60436   3 ;     O1-    S1-    C3-    H6
     5      7      4     14      9 ;     0.00   0.60436   3 ;     O1-    S1-    C4-    H7
     5      7      4     15      9 ;     0.00   0.60436   3 ;     O1-    S1-    C4-    H8
     6      7      3     12      9 ;     0.00   0.60436   3 ;     O2-    S1-    C3-    H5
     6      7      3     13      9 ;     0.00   0.60436   3 ;     O2-    S1-    C3-    H6
     6      7      4     14      9 ;     0.00   0.60436   3 ;     O2-    S1-    C4-    H7
     6      7      4     15      9 ;     0.00   0.60436   3 ;     O2-    S1-    C4-    H8
     7      4      2     10      9 ;     0.00   0.65084   3 ;     S1-    C4-    C2-    H3
     7      4      2     11      9 ;     0.00   0.65084   3 ;     S1-    C4-    C2-    H4
     8      1      2      4      9 ;     0.00   0.54392   3 ;     H1-    C1-    C2-    C4
     8      1      2     10      9 ;     0.00   0.50208   3 ;     H1-    C1-    C2-    H3
     8      1      2     11      9 ;     0.00   0.50208   3 ;     H1-    C1-    C2-    H4
     8      1      3      7      9 ;     0.00   0.65084   3 ;     H1-    C1-    C3-    S1
     8      1      3     12      9 ;     0.00   0.65084   3 ;     H1-    C1-    C3-    H5
     8      1      3     13      9 ;     0.00   0.65084   3 ;     H1-    C1-    C3-    H6
     9      1      2      4      9 ;     0.00   0.54392   3 ;     H2-    C1-    C2-    C4
     9      1      2     10      9 ;     0.00   0.50208   3 ;     H2-    C1-    C2-    H3
     9      1      2     11      9 ;     0.00   0.50208   3 ;     H2-    C1-    C2-    H4
     9      1      3      7      9 ;     0.00   0.65084   3 ;     H2-    C1-    C3-    S1
     9      1      3     12      9 ;     0.00   0.65084   3 ;     H2-    C1-    C3-    H5
     9      1      3     13      9 ;     0.00   0.65084   3 ;     H2-    C1-    C3-    H6
    10      2      4     14      9 ;     0.00   0.65084   3 ;     H3-    C2-    C4-    H7
    10      2      4     15      9 ;     0.00   0.65084   3 ;     H3-    C2-    C4-    H8
    11      2      4     14      9 ;     0.00   0.65084   3 ;     H4-    C2-    C4-    H7
    11      2      4     15      9 ;     0.00   0.65084   3 ;     H4-    C2-    C4-    H8
