sulfolane
    15
   0.3390000   0.4830000   0.9250000  -0.8090000   0.5230000   1.9320000
   1.4400000  -0.3490000   1.5720000  -1.0390000  -0.9200000   2.3680000
   1.0340000  -1.6420000   3.8320000   0.6020000  -2.8500000   1.6430000
   0.5900000  -1.6500000   2.4540000  -0.0010000   0.0000000   0.0000000
   0.6930000   1.4860000   0.6700000  -0.5180000   1.1330000   2.7960000
  -1.7150000   0.9600000   1.5020000   2.1230000  -0.7830000   0.8390000
   1.9990000   0.2410000   2.3040000  -1.5290000  -0.9910000   3.3410000
  -1.6130000  -1.4700000   1.6170000
