mobley_1231151_GMX.gro created by acpype (v: 2023.10.27) on Wed May 20 23:59:02 2026
   11
    1MOL     C1    1   2.196   2.151   2.108
    1MOL     C2    2   2.229   2.322   2.289
    1MOL     C3    3   2.210   2.175   2.257
    1MOL    CL1    4   2.349   2.082   2.320
    1MOL     H1    5   2.180   2.044   2.086
    1MOL     H2    6   2.109   2.205   2.068
    1MOL     H3    7   2.284   2.184   2.053
    1MOL     H4    8   2.238   2.339   2.397
    1MOL     H5    9   2.143   2.381   2.253
    1MOL     H6   10   2.319   2.363   2.241
    1MOL     H7   11   2.121   2.137   2.309
   4.43256   4.43256   4.43256
