mobley_4043987_GMX.gro created by acpype (v: 2023.10.27) on Wed May 20 23:44:11 2026
10379
    1MOL     C1    1   2.644   2.362   2.195
    1MOL     C2    2   2.145   2.293   2.379
    1MOL     C3    3   2.272   2.318   2.593
    1MOL     C4    4   2.537   2.453   2.253
    1MOL     C5    5   2.432   2.374   2.332
    1MOL     C6    6   2.327   2.467   2.393
    1MOL     C7    7   2.217   2.392   2.471
    1MOL     H1    8   2.717   2.420   2.139
    1MOL     H2    9   2.696   2.308   2.275
    1MOL     H3   10   2.600   2.288   2.127
    1MOL     H4   11   2.214   2.217   2.341
    1MOL     H5   12   2.064   2.242   2.432
    1MOL     H6   13   2.101   2.345   2.293
    1MOL     H7   14   2.352   2.248   2.564
    1MOL     H8   15   2.194   2.260   2.643
    1MOL     H9   16   2.313   2.388   2.667
    1MOL    H10   17   2.488   2.508   2.171
    1MOL    H11   18   2.584   2.527   2.318
    1MOL    H12   19   2.384   2.301   2.265
    1MOL    H13   20   2.481   2.317   2.412
    1MOL    H14   21   2.377   2.537   2.460
    1MOL    H15   22   2.281   2.527   2.313
    1MOL    H16   23   2.143   2.465   2.506
    2SOL     OW   24   0.230   0.628   0.113
    2SOL    HW1   25   0.137   0.626   0.150
    2SOL    HW2   26   0.231   0.589   0.021
    3SOL     OW   27   0.225   0.275   0.996
    3SOL    HW1   28   0.260   0.258   1.088
    3SOL    HW2   29   0.137   0.230   0.984
    4SOL     OW   30   0.019   0.368   0.647
    4SOL    HW1   31  -0.063   0.411   0.686
    4SOL    HW2   32  -0.009   0.295   0.584
    5SOL     OW   33   0.569   1.275   1.165
    5SOL    HW1   34   0.476   1.268   1.128
    5SOL    HW2   35   0.580   1.364   1.209
    6SOL     OW   36   1.555   1.511   0.703
    6SOL    HW1   37   1.498   1.495   0.784
    6SOL    HW2   38   1.496   1.521   0.623
    7SOL     OW   39   1.135   0.703   0.717
    7SOL    HW1   40   1.192   0.781   0.692
    7SOL    HW2   41   1.075   0.729   0.793
    8SOL     OW   42   1.755   0.607   0.231
    8SOL    HW1   43   1.743   0.594   0.132
    8SOL    HW2   44   1.725   0.526   0.280
    9SOL     OW   45   0.768   1.144   1.023
    9SOL    HW1   46   0.690   1.161   1.083
    9SOL    HW2   47   0.802   1.231   0.987
   10SOL     OW   48   0.850   0.798   1.823
   10SOL    HW1   49   0.846   0.874   1.888
   10SOL    HW2   50   0.872   0.834   1.732
   11SOL     OW   51   0.685   1.012   0.665
   11SOL    HW1   52   0.754   0.996   0.735
   11SOL    HW2   53   0.612   1.069   0.703
   12SOL     OW   54   0.686   1.161   1.803
   12SOL    HW1   55   0.746   1.240   1.817
   12SOL    HW2   56   0.600   1.192   1.762
   13SOL     OW   57   0.335   1.435   1.061
   13SOL    HW1   58   0.257   1.404   1.008
   13SOL    HW2   59   0.393   1.493   1.004
   14SOL     OW   60   1.460   1.505   1.339
   14SOL    HW1   61   1.484   1.599   1.365
   14SOL    HW2   62   1.444   1.451   1.421
   15SOL     OW   63   0.438   0.392   1.499
   15SOL    HW1   64   0.520   0.336   1.508
   15SOL    HW2   65   0.357   0.334   1.503
   16SOL     OW   66   1.603   0.447   0.737
   16SOL    HW1   67   1.529   0.493   0.687
   16SOL    HW2   68   1.654   0.515   0.790
   17SOL     OW   69   0.231   1.713   0.483
   17SOL    HW1   70   0.265   1.790   0.537
   17SOL    HW2   71   0.275   1.713   0.393
   18SOL     OW   72   1.127   1.341   1.690
   18SOL    HW1   73   1.174   1.341   1.778
   18SOL    HW2   74   1.079   1.254   1.679
   19SOL     OW   75   0.230   1.434   0.538
   19SOL    HW1   76   0.204   1.530   0.538
   19SOL    HW2   77   0.159   1.380   0.583
   20SOL     OW   78   0.240   1.091   0.886
   20SOL    HW1   79   0.254   1.007   0.938
   20SOL    HW2   80   0.185   1.155   0.941
   21SOL     OW   81   0.620   1.786   1.439
   21SOL    HW1   82   0.528   1.769   1.474
   21SOL    HW2   83   0.648   1.878   1.465
   22SOL     OW   84   0.606   0.964   0.123
   22SOL    HW1   85   0.613   1.048   0.069
   22SOL    HW2   86   0.652   0.977   0.211
   23SOL     OW   87   1.594   0.114   1.480
   23SOL    HW1   88   1.576   0.181   1.408
   23SOL    HW2   89   1.591   0.160   1.569
   24SOL     OW   90   0.122   0.643   0.563
   24SOL    HW1   91   0.077   0.555   0.580
   24SOL    HW2   92   0.121   0.697   0.647
   25SOL     OW   93   1.842   1.767   0.359
   25SOL    HW1   94   1.896   1.738   0.439
   25SOL    HW2   95   1.872   1.857   0.330
   26SOL     OW   96   0.027   1.596   0.117
   26SOL    HW1   97   0.008   1.500   0.138
   26SOL    HW2   98  -0.006   1.654   0.192
   27SOL     OW   99   1.689   0.922   0.612
   27SOL    HW1  100   1.784   0.893   0.620
   27SOL    HW2  101   1.681   0.987   0.537
   28SOL     OW  102   1.641   1.108   0.432
   28SOL    HW1  103   1.727   1.110   0.380
   28SOL    HW2  104   1.655   1.155   0.520
   29SOL     OW  105   0.113   0.737   1.597
   29SOL    HW1  106   0.201   0.724   1.642
   29SOL    HW2  107   0.100   0.834   1.575
   30SOL     OW  108   0.613   1.365   0.726
   30SOL    HW1  109   0.564   1.278   0.735
   30SOL    HW2  110   0.590   1.408   0.639
   31SOL     OW  111   1.293   1.228   1.423
   31SOL    HW1  112   1.330   1.155   1.365
   31SOL    HW2  113   1.345   1.233   1.508
   32SOL     OW  114   0.809   0.004   0.502
   32SOL    HW1  115   0.849   0.095   0.493
   32SOL    HW2  116   0.709   0.012   0.508
   33SOL     OW  117   0.197   0.976   1.264
   33SOL    HW1  118   0.286   0.931   1.250
   33SOL    HW2  119   0.124   0.911   1.245
   34SOL     OW  120   1.525   0.999   0.190
   34SOL    HW1  121   1.462   0.923   0.203
   34SOL    HW2  122   1.573   1.017   0.276
   35SOL     OW  123   1.187   1.792   1.616
   35SOL    HW1  124   1.211   1.852   1.540
   35SOL    HW2  125   1.194   1.697   1.586
   36SOL     OW  126   0.317   0.251   1.801
   36SOL    HW1  127   0.388   0.322   1.807
   36SOL    HW2  128   0.229   0.290   1.829
   37SOL     OW  129   1.466   1.417   0.953
   37SOL    HW1  130   1.407   1.423   1.033
   37SOL    HW2  131   1.451   1.329   0.907
   38SOL     OW  132   1.667   1.714   0.572
   38SOL    HW1  133   1.626   1.691   0.484
   38SOL    HW2  134   1.649   1.640   0.637
   39SOL     OW  135   0.598   0.729   0.270
   39SOL    HW1  136   0.622   0.798   0.202
   39SOL    HW2  137   0.520   0.762   0.324
   40SOL     OW  138   1.281   0.345   0.944
   40SOL    HW1  139   1.195   0.295   0.931
   40SOL    HW2  140   1.343   0.291   1.000
   41SOL     OW  141   1.576   1.662   0.307
   41SOL    HW1  142   1.665   1.708   0.310
   41SOL    HW2  143   1.555   1.638   0.212
   42SOL     OW  144   0.807   0.605   1.465
   42SOL    HW1  145   0.760   0.602   1.554
   42SOL    HW2  146   0.756   0.550   1.399
   43SOL     OW  147   1.394   0.469   1.674
   43SOL    HW1  148   1.374   0.512   1.762
   43SOL    HW2  149   1.472   0.407   1.683
   44SOL     OW  150   0.973   0.890   1.572
   44SOL    HW1  151   1.019   0.806   1.543
   44SOL    HW2  152   0.917   0.924   1.497
   45SOL     OW  153   0.991   0.410   1.242
   45SOL    HW1  154   0.914   0.444   1.296
   45SOL    HW2  155   0.957   0.359   1.163
   46SOL     OW  156   1.041   0.701   0.429
   46SOL    HW1  157   1.067   0.697   0.525
   46SOL    HW2  158   0.956   0.650   0.415
   47SOL     OW  159   0.076   0.811   0.789
   47SOL    HW1  160   0.175   0.799   0.798
   47SOL    HW2  161   0.052   0.906   0.810
   48SOL     OW  162   0.130   1.821   1.571
   48SOL    HW1  163   0.120   1.806   1.670
   48SOL    HW2  164   0.044   1.857   1.535
   49SOL     OW  165   0.865   0.348   0.195
   49SOL    HW1  166   0.924   0.411   0.146
   49SOL    HW2  167   0.884   0.254   0.166
   50SOL     OW  168   1.719   0.585   1.831
   50SOL    HW1  169   1.693   0.674   1.795
   50SOL    HW2  170   1.717   0.517   1.758
   51SOL     OW  171   1.362   1.144   0.545
   51SOL    HW1  172   1.445   1.115   0.497
   51SOL    HW2  173   1.313   1.211   0.489
   52SOL     OW  174   0.550   0.196   0.885
   52SOL    HW1  175   0.545   0.191   0.985
   52SOL    HW2  176   0.552   0.292   0.856
   53SOL     OW  177   1.008   1.456   0.477
   53SOL    HW1  178   0.962   1.528   0.425
   53SOL    HW2  179   1.004   1.476   0.575
   54SOL     OW  180   0.351   1.801   0.853
   54SOL    HW1  181   0.401   1.715   0.859
   54SOL    HW2  182   0.416   1.878   0.850
   55SOL     OW  183   1.795   1.066   0.873
   55SOL    HW1  184   1.733   1.051   0.797
   55SOL    HW2  185   1.743   1.077   0.958
   56SOL     OW  186   1.227   1.550   1.506
   56SOL    HW1  187   1.233   1.473   1.570
   56SOL    HW2  188   1.175   1.524   1.426
   57SOL     OW  189   0.321   0.943   0.242
   57SOL    HW1  190   0.403   0.982   0.200
   57SOL    HW2  191   0.294   0.861   0.193
   58SOL     OW  192   1.458   0.735   0.728
   58SOL    HW1  193   1.453   0.670   0.803
   58SOL    HW2  194   1.538   0.794   0.741
   59SOL     OW  195   0.461   1.266   1.727
   59SOL    HW1  196   0.411   1.267   1.641
   59SOL    HW2  197   0.398   1.248   1.803
   60SOL     OW  198   1.111   1.776   0.237
   60SOL    HW1  199   1.051   1.714   0.287
   60SOL    HW2  200   1.142   1.732   0.152
   61SOL     OW  201   0.202   0.285   1.498
   61SOL    HW1  202   0.122   0.345   1.485
   61SOL    HW2  203   0.192   0.236   1.584
   62SOL     OW  204   1.632   1.377   0.081
   62SOL    HW1  205   1.600   1.471   0.071
   62SOL    HW2  206   1.556   1.314   0.069
   63SOL     OW  207   0.464   1.743   0.323
   63SOL    HW1  208   0.497   1.782   0.409
   63SOL    HW2  209   0.540   1.736   0.258
   64SOL     OW  210   1.400   0.107   0.426
   64SOL    HW1  211   1.376   0.070   0.336
   64SOL    HW2  212   1.499   0.123   0.430
   65SOL     OW  213   0.249   1.785   1.241
   65SOL    HW1  214   0.306   1.720   1.291
   65SOL    HW2  215   0.233   1.752   1.148
   66SOL     OW  216   0.940   1.698   0.904
   66SOL    HW1  217   1.020   1.641   0.925
   66SOL    HW2  218   0.891   1.658   0.827
   67SOL     OW  219   0.382   0.700   0.480
   67SOL    HW1  220   0.427   0.610   0.477
   67SOL    HW2  221   0.288   0.689   0.513
   68SOL     OW  222   1.547   0.222   1.729
   68SOL    HW1  223   1.542   0.259   1.821
   68SOL    HW2  224   1.475   0.153   1.717
   69SOL     OW  225   0.614   0.122   0.117
   69SOL    HW1  226   0.712   0.100   0.124
   69SOL    HW2  227   0.583   0.105   0.024
   70SOL     OW  228   0.781   0.264   1.749
   70SOL    HW1  229   0.848   0.203   1.792
   70SOL    HW2  230   0.708   0.283   1.814
   71SOL     OW  231   0.888   1.514   1.195
   71SOL    HW1  232   0.865   1.489   1.101
   71SOL    HW2  233   0.949   1.445   1.234
   72SOL     OW  234   1.351   0.590   1.433
   72SOL    HW1  235   1.379   0.547   1.518
   72SOL    HW2  236   1.376   0.686   1.434
   73SOL     OW  237   0.803   1.402   0.924
   73SOL    HW1  238   0.893   1.416   0.882
   73SOL    HW2  239   0.732   1.404   0.853
   74SOL     OW  240   0.922   0.503   0.899
   74SOL    HW1  241   0.897   0.494   0.803
   74SOL    HW2  242   0.970   0.421   0.930
   75SOL     OW  243   0.539   0.064   0.512
   75SOL    HW1  244   0.458   0.065   0.570
   75SOL    HW2  245   0.542   0.147   0.457
   76SOL     OW  246   1.434   1.188   0.041
   76SOL    HW1  247   1.466   1.112   0.098
   76SOL    HW2  248   1.342   1.215   0.071
   77SOL     OW  249   0.297   0.035   0.171
   77SOL    HW1  250   0.346   0.119   0.150
   77SOL    HW2  251   0.359  -0.030   0.216
   78SOL     OW  252   0.935   0.236   0.480
   78SOL    HW1  253   0.887   0.277   0.402
   78SOL    HW2  254   1.034   0.234   0.461
   79SOL     OW  255   1.076   0.683   1.464
   79SOL    HW1  256   0.996   0.622   1.467
   79SOL    HW2  257   1.157   0.630   1.440
   80SOL     OW  258   1.227   1.570   0.793
   80SOL    HW1  259   1.248   1.644   0.728
   80SOL    HW2  260   1.295   1.570   0.866
   81SOL     OW  261   0.459   1.152   0.741
   81SOL    HW1  262   0.388   1.125   0.806
   81SOL    HW2  263   0.433   1.124   0.648
   82SOL     OW  264   1.271   1.797   0.591
   82SOL    HW1  265   1.315   1.861   0.527
   82SOL    HW2  266   1.221   1.849   0.661
   83SOL     OW  267   1.032   0.549   0.016
   83SOL    HW1  268   0.991   0.631  -0.023
   83SOL    HW2  269   1.096   0.575   0.089
   84SOL     OW  270   0.078   0.556   1.386
   84SOL    HW1  271   0.170   0.555   1.345
   84SOL    HW2  272   0.072   0.630   1.453
   85SOL     OW  273   0.561   0.222   1.147
   85SOL    HW1  274   0.599   0.138   1.184
   85SOL    HW2  275   0.473   0.241   1.191
   86SOL     OW  276   0.866   0.454   0.642
   86SOL    HW1  277   0.834   0.526   0.580
   86SOL    HW2  278   0.890   0.373   0.589
   87SOL     OW  279   1.017   0.039   0.753
   87SOL    HW1  280   0.945   0.044   0.684
   87SOL    HW2  281   0.993  -0.030   0.822
   88SOL     OW  282   1.429   1.173   0.867
   88SOL    HW1  283   1.374   1.089   0.860
   88SOL    HW2  284   1.455   1.202   0.775
   89SOL     OW  285   1.466   0.590   0.992
   89SOL    HW1  286   1.436   0.495   0.999
   89SOL    HW2  287   1.539   0.606   1.058
   90SOL     OW  288   1.857   0.833   0.377
   90SOL    HW1  289   1.899   0.769   0.441
   90SOL    HW2  290   1.819   0.782   0.299
   91SOL     OW  291   0.488   1.385   0.174
   91SOL    HW1  292   0.401   1.370   0.221
   91SOL    HW2  293   0.471   1.411   0.079
   92SOL     OW  294   1.664   1.280   0.657
   92SOL    HW1  295   1.763   1.288   0.671
   92SOL    HW2  296   1.619   1.364   0.688
   93SOL     OW  297   1.390   0.575   0.078
   93SOL    HW1  298   1.336   0.554   0.159
   93SOL    HW2  299   1.481   0.534   0.087
   94SOL     OW  300   0.527   0.256   0.328
   94SOL    HW1  301   0.554   0.197   0.253
   94SOL    HW2  302   0.527   0.351   0.297
   95SOL     OW  303   1.754   1.223   1.588
   95SOL    HW1  304   1.845   1.184   1.575
   95SOL    HW2  305   1.762   1.319   1.612
   96SOL     OW  306   1.064   1.347   1.340
   96SOL    HW1  307   0.984   1.324   1.395
   96SOL    HW2  308   1.147   1.321   1.389
   97SOL     OW  309   1.592   1.629   1.625
   97SOL    HW1  310   1.619   1.663   1.535
   97SOL    HW2  311   1.671   1.591   1.671
   98SOL     OW  312   1.111   1.195   1.100
   98SOL    HW1  313   1.071   1.239   1.181
   98SOL    HW2  314   1.070   1.232   1.017
   99SOL     OW  315   1.638   1.099   1.079
   99SOL    HW1  316   1.643   1.180   1.138
   99SOL    HW2  317   1.552   1.101   1.028
  100SOL     OW  318   0.915   0.089   1.402
  100SOL    HW1  319   0.940   0.069   1.307
  100SOL    HW2  320   0.987   0.145   1.444
  101SOL     OW  321   0.980   1.116   1.719
  101SOL    HW1  322   0.881   1.122   1.729
  101SOL    HW2  323   1.003   1.036   1.663
  102SOL     OW  324   0.705   1.050   0.368
  102SOL    HW1  325   0.691   1.057   0.467
  102SOL    HW2  326   0.789   0.999   0.350
  103SOL     OW  327   0.410   0.813   1.251
  103SOL    HW1  328   0.496   0.825   1.301
  103SOL    HW2  329   0.368   0.726   1.278
  104SOL     OW  330   1.274   0.386   1.262
  104SOL    HW1  331   1.295   0.460   1.326
  104SOL    HW2  332   1.185   0.403   1.219
  105SOL     OW  333   0.064   1.564   1.331
  105SOL    HW1  334   0.018   1.646   1.297
  105SOL    HW2  335   0.162   1.583   1.340
  106SOL     OW  336   0.367   1.100   0.501
  106SOL    HW1  337   0.360   1.183   0.445
  106SOL    HW2  338   0.371   1.020   0.441
  107SOL     OW  339   0.566   0.537   0.865
  107SOL    HW1  340   0.578   0.603   0.791
  107SOL    HW2  341   0.612   0.571   0.948
  108SOL     OW  342   1.252   1.348   0.388
  108SOL    HW1  343   1.302   1.425   0.428
  108SOL    HW2  344   1.157   1.350   0.420
  109SOL     OW  345   1.272   1.445   1.142
  109SOL    HW1  346   1.319   1.458   1.229
  109SOL    HW2  347   1.206   1.371   1.151
  110SOL     OW  348   1.582   0.639   0.472
  110SOL    HW1  349   1.551   0.700   0.545
  110SOL    HW2  350   1.632   0.691   0.403
  111SOL     OW  351   0.354   1.510   1.329
  111SOL    HW1  352   0.333   1.466   1.242
  111SOL    HW2  353   0.451   1.536   1.332
  112SOL     OW  354   0.402   0.751   1.598
  112SOL    HW1  355   0.470   0.806   1.551
  112SOL    HW2  356   0.442   0.663   1.625
  113SOL     OW  357   1.587   0.779   1.670
  113SOL    HW1  358   1.495   0.817   1.665
  113SOL    HW2  359   1.647   0.826   1.605
  114SOL     OW  360   1.013   0.105   1.770
  114SOL    HW1  361   1.019   0.190   1.718
  114SOL    HW2  362   1.045   0.029   1.713
  115SOL     OW  363   0.504   0.050   1.740
  115SOL    HW1  364   0.462  -0.007   1.670
  115SOL    HW2  365   0.438   0.119   1.772
  116SOL     OW  366   0.573   0.870   1.029
  116SOL    HW1  367   0.617   0.959   1.020
  116SOL    HW2  368   0.510   0.870   1.106
  117SOL     OW  369   1.360   0.862   1.045
  117SOL    HW1  370   1.285   0.862   0.979
  117SOL    HW2  371   1.397   0.770   1.054
  118SOL     OW  372   1.209   0.525   0.275
  118SOL    HW1  373   1.222   0.441   0.329
  118SOL    HW2  374   1.180   0.599   0.335
  119SOL     OW  375   0.307   0.213   1.231
  119SOL    HW1  376   0.284   0.250   1.321
  119SOL    HW2  377   0.277   0.118   1.225
  120SOL     OW  378   0.037   1.310   1.282
  120SOL    HW1  379   0.090   1.261   1.350
  120SOL    HW2  380   0.059   1.408   1.287
  121SOL     OW  381   0.732   0.634   1.064
  121SOL    HW1  382   0.791   0.608   0.988
  121SOL    HW2  383   0.704   0.730   1.053
  122SOL     OW  384   1.728   0.935   1.854
  122SOL    HW1  385   1.682   0.928   1.765
  122SOL    HW2  386   1.666   0.979   1.920
  123SOL     OW  387   0.307   0.063   0.618
  123SOL    HW1  388   0.296   0.157   0.651
  123SOL    HW2  389   0.302   0.000   0.695
  124SOL     OW  390   1.622   0.367   0.374
  124SOL    HW1  391   1.624   0.291   0.438
  124SOL    HW2  392   1.574   0.444   0.414
  125SOL     OW  393   1.023   0.766   0.966
  125SOL    HW1  394   1.038   0.787   1.062
  125SOL    HW2  395   0.993   0.671   0.957
  126SOL     OW  396   0.980   1.573   1.700
  126SOL    HW1  397   0.960   1.617   1.612
  126SOL    HW2  398   1.019   1.482   1.684
  127SOL     OW  399   1.859   1.518   1.605
  127SOL    HW1  400   1.873   1.545   1.510
  127SOL    HW2  401   1.942   1.540   1.658
  128SOL     OW  402   0.350   0.898   1.804
  128SOL    HW1  403   0.426   0.942   1.852
  128SOL    HW2  404   0.385   0.851   1.722
  129SOL     OW  405   1.540   0.274   0.125
  129SOL    HW1  406   1.479   0.199   0.148
  129SOL    HW2  407   1.562   0.326   0.208
  130SOL     OW  408   1.303   0.838   0.042
  130SOL    HW1  409   1.337   0.745   0.057
  130SOL    HW2  410   1.321   0.865  -0.053
  131SOL     OW  411   1.068   1.333   0.849
  131SOL    HW1  412   1.075   1.249   0.794
  131SOL    HW2  413   1.130   1.402   0.813
  132SOL     OW  414   0.319   0.810   0.949
  132SOL    HW1  415   0.412   0.846   0.954
  132SOL    HW2  416   0.313   0.725   1.001
  133SOL     OW  417   0.339   0.509   1.006
  133SOL    HW1  418   0.287   0.426   0.989
  133SOL    HW2  419   0.416   0.514   0.942
  134SOL     OW  420   1.138   0.380   1.678
  134SOL    HW1  421   1.093   0.443   1.742
  134SOL    HW2  422   1.231   0.411   1.661
  135SOL     OW  423   1.160   0.207   1.477
  135SOL    HW1  424   1.160   0.271   1.554
  135SOL    HW2  425   1.188   0.255   1.394
  136SOL     OW  426   0.008   1.326   0.200
  136SOL    HW1  427  -0.085   1.347   0.169
  136SOL    HW2  428   0.018   1.227   0.213
  137SOL     OW  429   0.088   1.801   0.927
  137SOL    HW1  430   0.046   1.715   0.900
  137SOL    HW2  431   0.182   1.804   0.893
  138SOL     OW  432   0.504   1.568   0.910
  138SOL    HW1  433   0.570   1.642   0.919
  138SOL    HW2  434   0.548   1.489   0.868
  139SOL     OW  435   1.002   0.796   1.238
  139SOL    HW1  436   1.043   0.764   1.324
  139SOL    HW2  437   0.906   0.769   1.235
  140SOL     OW  438   0.040   0.544   1.114
  140SOL    HW1  439   0.125   0.511   1.073
  140SOL    HW2  440   0.053   0.559   1.212
  141SOL     OW  441   0.189   0.520   1.722
  141SOL    HW1  442   0.248   0.480   1.652
  141SOL    HW2  443   0.131   0.591   1.681
  142SOL     OW  444   1.369   0.950   1.660
  142SOL    HW1  445   1.408   1.039   1.680
  142SOL    HW2  446   1.379   0.930   1.563
  143SOL     OW  447   0.815   0.572   0.325
  143SOL    HW1  448   0.822   0.483   0.279
  143SOL    HW2  449   0.721   0.606   0.317
  144SOL     OW  450   1.657   0.604   1.206
  144SOL    HW1  451   1.619   0.535   1.268
  144SOL    HW2  452   1.739   0.568   1.162
  145SOL     OW  453   0.252   1.564   1.744
  145SOL    HW1  454   0.222   1.621   1.820
  145SOL    HW2  455   0.245   1.467   1.770
  146SOL     OW  456   0.671   0.464   1.269
  146SOL    HW1  457   0.637   0.375   1.239
  146SOL    HW2  458   0.697   0.518   1.189
  147SOL     OW  459   0.930   1.678   1.465
  147SOL    HW1  460   0.906   1.660   1.370
  147SOL    HW2  461   0.960   1.772   1.475
  148SOL     OW  462   0.473   0.500   0.191
  148SOL    HW1  463   0.534   0.580   0.195
  148SOL    HW2  464   0.378   0.531   0.198
  149SOL     OW  465   0.159   1.137   1.466
  149SOL    HW1  466   0.181   1.076   1.542
  149SOL    HW2  467   0.169   1.088   1.380
  150SOL     OW  468   1.347   1.059   1.234
  150SOL    HW1  469   1.371   0.996   1.160
  150SOL    HW2  470   1.257   1.099   1.216
  151SOL     OW  471   1.302   0.855   0.309
  151SOL    HW1  472   1.216   0.824   0.351
  151SOL    HW2  473   1.298   0.841   0.210
  152SOL     OW  474   1.759   1.747   1.154
  152SOL    HW1  475   1.820   1.777   1.081
  152SOL    HW2  476   1.721   1.658   1.132
  153SOL     OW  477   1.252   1.731   1.128
  153SOL    HW1  478   1.336   1.736   1.074
  153SOL    HW2  479   1.229   1.635   1.146
  154SOL     OW  480   0.083   1.258   1.022
  154SOL    HW1  481   0.078   1.257   1.122
  154SOL    HW2  482   0.000   1.217   0.984
  155SOL     OW  483   0.688   1.662   1.716
  155SOL    HW1  484   0.632   1.743   1.725
  155SOL    HW2  485   0.740   1.666   1.630
  156SOL     OW  486   0.903   0.086   0.133
  156SOL    HW1  487   0.954   0.087   0.047
  156SOL    HW2  488   0.959   0.044   0.204
  157SOL     OW  489   1.726   0.135   0.523
  157SOL    HW1  490   1.799   0.118   0.456
  157SOL    HW2  491   1.695   0.048   0.561
  158SOL     OW  492   1.388   1.573   0.477
  158SOL    HW1  493   1.455   1.585   0.403
  158SOL    HW2  494   1.348   1.662   0.500
  159SOL     OW  495   0.130   1.794   1.851
  159SOL    HW1  496   0.089   1.720   1.904
  159SOL    HW2  497   0.194   1.845   1.909
  160SOL     OW  498   1.280   0.927   0.672
  160SOL    HW1  499   1.340   0.846   0.674
  160SOL    HW2  500   1.320   0.996   0.612
  161SOL     OW  501   0.830   1.273   1.422
  161SOL    HW1  502   0.825   1.306   1.517
  161SOL    HW2  503   0.744   1.292   1.376
  162SOL     OW  504   0.672   1.616   0.154
  162SOL    HW1  505   0.681   1.626   0.055
  162SOL    HW2  506   0.632   1.527   0.175
  163SOL     OW  507   1.650   1.720   1.394
  163SOL    HW1  508   1.703   1.730   1.310
  163SOL    HW2  509   1.623   1.810   1.428
  164SOL     OW  510   1.841   0.175   0.963
  164SOL    HW1  511   1.880   0.090   0.927
  164SOL    HW2  512   1.743   0.177   0.944
  165SOL     OW  513   0.263   0.326   0.720
  165SOL    HW1  514   0.184   0.377   0.686
  165SOL    HW2  515   0.254   0.311   0.818
  166SOL     OW  516   1.194   1.612   0.031
  166SOL    HW1  517   1.200   1.519   0.068
  166SOL    HW2  518   1.135   1.612  -0.049
  167SOL     OW  519   0.822   1.002   1.372
  167SOL    HW1  520   0.862   1.001   1.280
  167SOL    HW2  521   0.832   1.094   1.412
  168SOL     OW  522   0.916   0.910   0.291
  168SOL    HW1  523   0.979   0.948   0.223
  168SOL    HW2  524   0.956   0.827   0.330
  169SOL     OW  525   1.504   1.607   0.044
  169SOL    HW1  526   1.412   1.644   0.051
  169SOL    HW2  527   1.542   1.627  -0.046
  170SOL     OW  528   0.372   1.288   1.490
  170SOL    HW1  529   0.359   1.381   1.456
  170SOL    HW2  530   0.288   1.236   1.477
  171SOL     OW  531   1.614   1.292   1.289
  171SOL    HW1  532   1.674   1.295   1.369
  171SOL    HW2  533   1.539   1.356   1.302
  172SOL     OW  534   1.039   1.098   0.696
  172SOL    HW1  535   0.969   1.051   0.750
  172SOL    HW2  536   1.098   1.030   0.653
  173SOL     OW  537   1.014   0.236   0.971
  173SOL    HW1  538   1.006   0.200   0.878
  173SOL    HW2  539   1.012   0.160   1.036
  174SOL     OW  540   0.590   1.487   0.491
  174SOL    HW1  541   0.632   1.429   0.421
  174SOL    HW2  542   0.546   1.566   0.447
  175SOL     OW  543   1.709   0.385   1.381
  175SOL    HW1  544   1.782   0.454   1.385
  175SOL    HW2  545   1.737   0.310   1.322
  176SOL     OW  546   0.255   1.348   0.290
  176SOL    HW1  547   0.159   1.349   0.263
  176SOL    HW2  548   0.267   1.401   0.374
  177SOL     OW  549   0.105   1.013   1.726
  177SOL    HW1  550   0.028   0.980   1.780
  177SOL    HW2  551   0.190   0.983   1.768
  178SOL     OW  552   0.672   0.203   1.489
  178SOL    HW1  553   0.762   0.187   1.449
  178SOL    HW2  554   0.680   0.208   1.588
  179SOL     OW  555   0.075   0.345   0.033
  179SOL    HW1  556  -0.017   0.317   0.004
  179SOL    HW2  557   0.106   0.422  -0.023
  180SOL     OW  558   1.440   0.856   1.398
  180SOL    HW1  559   1.383   0.908   1.335
  180SOL    HW2  560   1.536   0.868   1.374
  181SOL     OW  561   0.072   0.166   0.318
  181SOL    HW1  562   0.055   0.249   0.264
  181SOL    HW2  563   0.162   0.129   0.296
  182SOL     OW  564   1.183   1.335   0.119
  182SOL    HW1  565   1.084   1.324   0.121
  182SOL    HW2  566   1.217   1.350   0.212
  183SOL     OW  567   0.613   0.842   1.431
  183SOL    HW1  568   0.669   0.923   1.414
  183SOL    HW2  569   0.672   0.762   1.434
  184SOL     OW  570   1.493   1.767   0.959
  184SOL    HW1  571   1.526   1.831   0.890
  184SOL    HW2  572   1.559   1.761   1.034
  185SOL     OW  573   0.716   0.565   1.708
  185SOL    HW1  574   0.735   0.630   1.782
  185SOL    HW2  575   0.776   0.485   1.717
  186SOL     OW  576   1.450   1.220   1.633
  186SOL    HW1  577   1.441   1.210   1.732
  186SOL    HW2  578   1.546   1.213   1.607
  187SOL     OW  579   0.390   1.741   1.560
  187SOL    HW1  580   0.299   1.782   1.558
  187SOL    HW2  581   0.383   1.647   1.592
  188SOL     OW  582   1.674   0.883   1.254
  188SOL    HW1  583   1.647   0.794   1.217
  188SOL    HW2  584   1.675   0.951   1.181
  189SOL     OW  585   1.225   0.325   0.449
  189SOL    HW1  586   1.290   0.251   0.438
  189SOL    HW2  587   1.245   0.375   0.533
  190SOL     OW  588   0.594   0.745   0.652
  190SOL    HW1  589   0.644   0.830   0.633
  190SOL    HW2  590   0.506   0.747   0.604
  191SOL     OW  591   1.777   0.342   1.642
  191SOL    HW1  592   1.760   0.373   1.548
  191SOL    HW2  593   1.693   0.305   1.680
  192SOL     OW  594   1.730   0.934   1.517
  192SOL    HW1  595   1.768   1.025   1.532
  192SOL    HW2  596   1.722   0.917   1.418
  193SOL     OW  597   0.859   1.374   0.016
  193SOL    HW1  598   0.813   1.389   0.104
  193SOL    HW2  599   0.903   1.459  -0.014
  194SOL     OW  600   0.661   1.790   0.953
  194SOL    HW1  601   0.615   1.878   0.940
  194SOL    HW2  602   0.760   1.802   0.946
  195SOL     OW  603   0.859   0.956   0.861
  195SOL    HW1  604   0.913   0.887   0.909
  195SOL    HW2  605   0.827   1.025   0.927
  196SOL     OW  606   1.083   0.984   0.087
  196SOL    HW1  607   1.060   1.037   0.005
  196SOL    HW2  608   1.164   0.928   0.068
  197SOL     OW  609   1.861   1.569   0.851
  197SOL    HW1  610   1.790   1.557   0.781
  197SOL    HW2  611   1.862   1.490   0.911
  198SOL     OW  612   0.221   1.314   1.844
  198SOL    HW1  613   0.156   1.241   1.823
  198SOL    HW2  614   0.225   1.328   1.942
  199SOL     OW  615   0.079   1.240   0.653
  199SOL    HW1  616   0.078   1.193   0.741
  199SOL    HW2  617   0.161   1.212   0.602
  200SOL     OW  618   0.672   1.391   1.624
  200SOL    HW1  619   0.594   1.341   1.662
  200SOL    HW2  620   0.669   1.486   1.655
  201SOL     OW  621   1.824   0.192   1.227
  201SOL    HW1  622   1.820   0.102   1.271
  201SOL    HW2  623   1.827   0.181   1.128
  202SOL     OW  624   0.428   0.424   0.520
  202SOL    HW1  625   0.458   0.352   0.458
  202SOL    HW2  626   0.389   0.384   0.603
  203SOL     OW  627   1.705   1.487   1.104
  203SOL    HW1  628   1.612   1.462   1.077
  203SOL    HW2  629   1.731   1.437   1.186
  204SOL     OW  630   0.317   0.547   1.280
  204SOL    HW1  631   0.355   0.488   1.352
  204SOL    HW2  632   0.357   0.521   1.192
  205SOL     OW  633   0.812   1.586   0.687
  205SOL    HW1  634   0.844   1.596   0.593
  205SOL    HW2  635   0.733   1.524   0.689
  206SOL     OW  636   1.424   0.214   1.112
  206SOL    HW1  637   1.476   0.149   1.167
  206SOL    HW2  638   1.375   0.277   1.173
  207SOL     OW  639   1.001   0.034   1.154
  207SOL    HW1  640   0.938  -0.038   1.123
  207SOL    HW2  641   1.094  -0.002   1.154
  208SOL     OW  642   0.770   1.330   0.301
  208SOL    HW1  643   0.724   1.243   0.318
  208SOL    HW2  644   0.861   1.327   0.342
  209SOL     OW  645   0.618   1.567   1.284
  209SOL    HW1  646   0.613   1.649   1.341
  209SOL    HW2  647   0.707   1.564   1.239
  210SOL     OW  648   1.352   0.052   0.168
  210SOL    HW1  649   1.387   0.011   0.084
  210SOL    HW2  650   1.262   0.014   0.188
  211SOL     OW  651   1.300   0.453   0.691
  211SOL    HW1  652   1.241   0.533   0.695
  211SOL    HW2  653   1.315   0.418   0.784
  212SOL     OW  654   1.593   0.221   0.882
  212SOL    HW1  655   1.509   0.220   0.936
  212SOL    HW2  656   1.595   0.304   0.826
  213SOL     OW  657   0.039   1.077   0.300
  213SOL    HW1  658   0.138   1.066   0.291
  213SOL    HW2  659  -0.001   0.991   0.332
  214SOL     OW  660   0.875   1.646   0.337
  214SOL    HW1  661   0.798   1.611   0.283
  214SOL    HW2  662   0.843   1.717   0.399
  215SOL     OW  663   0.230   0.628   1.975
  215SOL    HW1  664   0.137   0.626   2.012
  215SOL    HW2  665   0.231   0.589   1.883
  216SOL     OW  666   0.225   0.275   2.858
  216SOL    HW1  667   0.260   0.258   2.950
  216SOL    HW2  668   0.137   0.230   2.846
  217SOL     OW  669   0.019   0.368   2.509
  217SOL    HW1  670  -0.063   0.411   2.548
  217SOL    HW2  671  -0.009   0.295   2.446
  218SOL     OW  672   0.569   1.275   3.027
  218SOL    HW1  673   0.476   1.268   2.990
  218SOL    HW2  674   0.580   1.364   3.071
  219SOL     OW  675   1.555   1.511   2.565
  219SOL    HW1  676   1.498   1.495   2.646
  219SOL    HW2  677   1.496   1.521   2.485
  220SOL     OW  678   1.135   0.703   2.579
  220SOL    HW1  679   1.192   0.781   2.554
  220SOL    HW2  680   1.075   0.729   2.655
  221SOL     OW  681   1.755   0.607   2.093
  221SOL    HW1  682   1.743   0.594   1.994
  221SOL    HW2  683   1.725   0.526   2.142
  222SOL     OW  684   0.768   1.144   2.885
  222SOL    HW1  685   0.690   1.161   2.945
  222SOL    HW2  686   0.802   1.231   2.849
  223SOL     OW  687   0.850   0.798   3.685
  223SOL    HW1  688   0.846   0.874   3.750
  223SOL    HW2  689   0.872   0.834   3.594
  224SOL     OW  690   0.685   1.012   2.527
  224SOL    HW1  691   0.754   0.996   2.597
  224SOL    HW2  692   0.612   1.069   2.565
  225SOL     OW  693   0.686   1.161   3.665
  225SOL    HW1  694   0.746   1.240   3.679
  225SOL    HW2  695   0.600   1.192   3.624
  226SOL     OW  696   0.335   1.435   2.923
  226SOL    HW1  697   0.257   1.404   2.870
  226SOL    HW2  698   0.393   1.493   2.866
  227SOL     OW  699   1.460   1.505   3.201
  227SOL    HW1  700   1.484   1.599   3.227
  227SOL    HW2  701   1.444   1.451   3.283
  228SOL     OW  702   0.438   0.392   3.361
  228SOL    HW1  703   0.520   0.336   3.370
  228SOL    HW2  704   0.357   0.334   3.365
  229SOL     OW  705   1.603   0.447   2.599
  229SOL    HW1  706   1.529   0.493   2.549
  229SOL    HW2  707   1.654   0.515   2.652
  230SOL     OW  708   0.231   1.713   2.345
  230SOL    HW1  709   0.265   1.790   2.399
  230SOL    HW2  710   0.275   1.713   2.255
  231SOL     OW  711   1.127   1.341   3.552
  231SOL    HW1  712   1.174   1.341   3.640
  231SOL    HW2  713   1.079   1.254   3.541
  232SOL     OW  714   0.230   1.434   2.400
  232SOL    HW1  715   0.204   1.530   2.400
  232SOL    HW2  716   0.159   1.380   2.445
  233SOL     OW  717   0.240   1.091   2.748
  233SOL    HW1  718   0.254   1.007   2.800
  233SOL    HW2  719   0.185   1.155   2.803
  234SOL     OW  720   0.620   1.786   3.301
  234SOL    HW1  721   0.528   1.769   3.336
  234SOL    HW2  722   0.648   1.878   3.327
  235SOL     OW  723   0.606   0.964   1.985
  235SOL    HW1  724   0.613   1.048   1.931
  235SOL    HW2  725   0.652   0.977   2.073
  236SOL     OW  726   1.594   0.114   3.342
  236SOL    HW1  727   1.576   0.181   3.270
  236SOL    HW2  728   1.591   0.160   3.431
  237SOL     OW  729   0.122   0.643   2.425
  237SOL    HW1  730   0.077   0.555   2.442
  237SOL    HW2  731   0.121   0.697   2.509
  238SOL     OW  732   1.842   1.767   2.221
  238SOL    HW1  733   1.896   1.738   2.301
  238SOL    HW2  734   1.872   1.857   2.192
  239SOL     OW  735   0.027   1.596   1.979
  239SOL    HW1  736   0.008   1.500   2.000
  239SOL    HW2  737  -0.006   1.654   2.054
  240SOL     OW  738   1.689   0.922   2.474
  240SOL    HW1  739   1.784   0.893   2.482
  240SOL    HW2  740   1.681   0.987   2.399
  241SOL     OW  741   1.641   1.108   2.294
  241SOL    HW1  742   1.727   1.110   2.242
  241SOL    HW2  743   1.655   1.155   2.382
  242SOL     OW  744   0.113   0.737   3.459
  242SOL    HW1  745   0.201   0.724   3.504
  242SOL    HW2  746   0.100   0.834   3.437
  243SOL     OW  747   0.613   1.365   2.588
  243SOL    HW1  748   0.564   1.278   2.597
  243SOL    HW2  749   0.590   1.408   2.501
  244SOL     OW  750   1.293   1.228   3.285
  244SOL    HW1  751   1.330   1.155   3.227
  244SOL    HW2  752   1.345   1.233   3.370
  245SOL     OW  753   0.809   0.004   2.364
  245SOL    HW1  754   0.849   0.095   2.355
  245SOL    HW2  755   0.709   0.012   2.370
  246SOL     OW  756   0.197   0.976   3.126
  246SOL    HW1  757   0.286   0.931   3.112
  246SOL    HW2  758   0.124   0.911   3.107
  247SOL     OW  759   1.525   0.999   2.052
  247SOL    HW1  760   1.462   0.923   2.065
  247SOL    HW2  761   1.573   1.017   2.138
  248SOL     OW  762   1.187   1.792   3.478
  248SOL    HW1  763   1.211   1.852   3.402
  248SOL    HW2  764   1.194   1.697   3.448
  249SOL     OW  765   0.317   0.251   3.663
  249SOL    HW1  766   0.388   0.322   3.669
  249SOL    HW2  767   0.229   0.290   3.691
  250SOL     OW  768   1.466   1.417   2.815
  250SOL    HW1  769   1.407   1.423   2.895
  250SOL    HW2  770   1.451   1.329   2.769
  251SOL     OW  771   1.667   1.714   2.434
  251SOL    HW1  772   1.626   1.691   2.346
  251SOL    HW2  773   1.649   1.640   2.499
  252SOL     OW  774   0.598   0.729   2.132
  252SOL    HW1  775   0.622   0.798   2.064
  252SOL    HW2  776   0.520   0.762   2.186
  253SOL     OW  777   1.281   0.345   2.806
  253SOL    HW1  778   1.195   0.295   2.793
  253SOL    HW2  779   1.343   0.291   2.862
  254SOL     OW  780   1.576   1.662   2.169
  254SOL    HW1  781   1.665   1.708   2.172
  254SOL    HW2  782   1.555   1.638   2.074
  255SOL     OW  783   0.807   0.605   3.327
  255SOL    HW1  784   0.760   0.602   3.416
  255SOL    HW2  785   0.756   0.550   3.261
  256SOL     OW  786   1.394   0.469   3.536
  256SOL    HW1  787   1.374   0.512   3.624
  256SOL    HW2  788   1.472   0.407   3.545
  257SOL     OW  789   0.973   0.890   3.434
  257SOL    HW1  790   1.019   0.806   3.405
  257SOL    HW2  791   0.917   0.924   3.359
  258SOL     OW  792   0.991   0.410   3.104
  258SOL    HW1  793   0.914   0.444   3.158
  258SOL    HW2  794   0.957   0.359   3.025
  259SOL     OW  795   1.041   0.701   2.291
  259SOL    HW1  796   1.067   0.697   2.387
  259SOL    HW2  797   0.956   0.650   2.277
  260SOL     OW  798   0.076   0.811   2.651
  260SOL    HW1  799   0.175   0.799   2.660
  260SOL    HW2  800   0.052   0.906   2.672
  261SOL     OW  801   0.130   1.821   3.433
  261SOL    HW1  802   0.120   1.806   3.532
  261SOL    HW2  803   0.044   1.857   3.397
  262SOL     OW  804   0.865   0.348   2.057
  262SOL    HW1  805   0.924   0.411   2.008
  262SOL    HW2  806   0.884   0.254   2.028
  263SOL     OW  807   1.719   0.585   3.693
  263SOL    HW1  808   1.693   0.674   3.657
  263SOL    HW2  809   1.717   0.517   3.620
  264SOL     OW  810   1.362   1.144   2.407
  264SOL    HW1  811   1.445   1.115   2.359
  264SOL    HW2  812   1.313   1.211   2.351
  265SOL     OW  813   0.550   0.196   2.747
  265SOL    HW1  814   0.545   0.191   2.847
  265SOL    HW2  815   0.552   0.292   2.718
  266SOL     OW  816   1.008   1.456   2.339
  266SOL    HW1  817   0.962   1.528   2.287
  266SOL    HW2  818   1.004   1.476   2.437
  267SOL     OW  819   0.351   1.801   2.715
  267SOL    HW1  820   0.401   1.715   2.721
  267SOL    HW2  821   0.416   1.878   2.712
  268SOL     OW  822   1.795   1.066   2.735
  268SOL    HW1  823   1.733   1.051   2.659
  268SOL    HW2  824   1.743   1.077   2.820
  269SOL     OW  825   1.227   1.550   3.368
  269SOL    HW1  826   1.233   1.473   3.432
  269SOL    HW2  827   1.175   1.524   3.288
  270SOL     OW  828   0.321   0.943   2.104
  270SOL    HW1  829   0.403   0.982   2.062
  270SOL    HW2  830   0.294   0.861   2.055
  271SOL     OW  831   1.458   0.735   2.590
  271SOL    HW1  832   1.453   0.670   2.665
  271SOL    HW2  833   1.538   0.794   2.603
  272SOL     OW  834   0.461   1.266   3.589
  272SOL    HW1  835   0.411   1.267   3.503
  272SOL    HW2  836   0.398   1.248   3.665
  273SOL     OW  837   1.111   1.776   2.099
  273SOL    HW1  838   1.051   1.714   2.149
  273SOL    HW2  839   1.142   1.732   2.014
  274SOL     OW  840   0.202   0.285   3.360
  274SOL    HW1  841   0.122   0.345   3.347
  274SOL    HW2  842   0.192   0.236   3.446
  275SOL     OW  843   1.632   1.377   1.943
  275SOL    HW1  844   1.600   1.471   1.933
  275SOL    HW2  845   1.556   1.314   1.931
  276SOL     OW  846   0.464   1.743   2.185
  276SOL    HW1  847   0.497   1.782   2.271
  276SOL    HW2  848   0.540   1.736   2.120
  277SOL     OW  849   1.400   0.107   2.288
  277SOL    HW1  850   1.376   0.070   2.198
  277SOL    HW2  851   1.499   0.123   2.292
  278SOL     OW  852   0.249   1.785   3.103
  278SOL    HW1  853   0.306   1.720   3.153
  278SOL    HW2  854   0.233   1.752   3.010
  279SOL     OW  855   0.940   1.698   2.766
  279SOL    HW1  856   1.020   1.641   2.787
  279SOL    HW2  857   0.891   1.658   2.689
  280SOL     OW  858   0.382   0.700   2.342
  280SOL    HW1  859   0.427   0.610   2.339
  280SOL    HW2  860   0.288   0.689   2.375
  281SOL     OW  861   1.547   0.222   3.591
  281SOL    HW1  862   1.542   0.259   3.683
  281SOL    HW2  863   1.475   0.153   3.579
  282SOL     OW  864   0.614   0.122   1.979
  282SOL    HW1  865   0.712   0.100   1.986
  282SOL    HW2  866   0.583   0.105   1.886
  283SOL     OW  867   0.781   0.264   3.611
  283SOL    HW1  868   0.848   0.203   3.654
  283SOL    HW2  869   0.708   0.283   3.676
  284SOL     OW  870   0.888   1.514   3.057
  284SOL    HW1  871   0.865   1.489   2.963
  284SOL    HW2  872   0.949   1.445   3.096
  285SOL     OW  873   1.351   0.590   3.295
  285SOL    HW1  874   1.379   0.547   3.380
  285SOL    HW2  875   1.376   0.686   3.296
  286SOL     OW  876   0.803   1.402   2.786
  286SOL    HW1  877   0.893   1.416   2.744
  286SOL    HW2  878   0.732   1.404   2.715
  287SOL     OW  879   0.922   0.503   2.761
  287SOL    HW1  880   0.897   0.494   2.665
  287SOL    HW2  881   0.970   0.421   2.792
  288SOL     OW  882   0.539   0.064   2.374
  288SOL    HW1  883   0.458   0.065   2.432
  288SOL    HW2  884   0.542   0.147   2.319
  289SOL     OW  885   1.434   1.188   1.903
  289SOL    HW1  886   1.466   1.112   1.960
  289SOL    HW2  887   1.342   1.215   1.933
  290SOL     OW  888   0.297   0.035   2.033
  290SOL    HW1  889   0.346   0.119   2.012
  290SOL    HW2  890   0.359  -0.030   2.078
  291SOL     OW  891   0.935   0.236   2.342
  291SOL    HW1  892   0.887   0.277   2.264
  291SOL    HW2  893   1.034   0.234   2.323
  292SOL     OW  894   1.076   0.683   3.326
  292SOL    HW1  895   0.996   0.622   3.329
  292SOL    HW2  896   1.157   0.630   3.302
  293SOL     OW  897   1.227   1.570   2.655
  293SOL    HW1  898   1.248   1.644   2.590
  293SOL    HW2  899   1.295   1.570   2.728
  294SOL     OW  900   0.459   1.152   2.603
  294SOL    HW1  901   0.388   1.125   2.668
  294SOL    HW2  902   0.433   1.124   2.510
  295SOL     OW  903   1.271   1.797   2.453
  295SOL    HW1  904   1.315   1.861   2.389
  295SOL    HW2  905   1.221   1.849   2.523
  296SOL     OW  906   1.032   0.549   1.878
  296SOL    HW1  907   0.991   0.631   1.839
  296SOL    HW2  908   1.096   0.575   1.951
  297SOL     OW  909   0.078   0.556   3.248
  297SOL    HW1  910   0.170   0.555   3.207
  297SOL    HW2  911   0.072   0.630   3.315
  298SOL     OW  912   0.561   0.222   3.009
  298SOL    HW1  913   0.599   0.138   3.046
  298SOL    HW2  914   0.473   0.241   3.053
  299SOL     OW  915   0.866   0.454   2.504
  299SOL    HW1  916   0.834   0.526   2.442
  299SOL    HW2  917   0.890   0.373   2.451
  300SOL     OW  918   1.017   0.039   2.615
  300SOL    HW1  919   0.945   0.044   2.546
  300SOL    HW2  920   0.993  -0.030   2.684
  301SOL     OW  921   1.429   1.173   2.729
  301SOL    HW1  922   1.374   1.089   2.722
  301SOL    HW2  923   1.455   1.202   2.637
  302SOL     OW  924   1.466   0.590   2.854
  302SOL    HW1  925   1.436   0.495   2.861
  302SOL    HW2  926   1.539   0.606   2.920
  303SOL     OW  927   1.857   0.833   2.239
  303SOL    HW1  928   1.899   0.769   2.303
  303SOL    HW2  929   1.819   0.782   2.161
  304SOL     OW  930   0.488   1.385   2.036
  304SOL    HW1  931   0.401   1.370   2.083
  304SOL    HW2  932   0.471   1.411   1.941
  305SOL     OW  933   1.664   1.280   2.519
  305SOL    HW1  934   1.763   1.288   2.533
  305SOL    HW2  935   1.619   1.364   2.550
  306SOL     OW  936   1.390   0.575   1.940
  306SOL    HW1  937   1.336   0.554   2.021
  306SOL    HW2  938   1.481   0.534   1.949
  307SOL     OW  939   0.527   0.256   2.190
  307SOL    HW1  940   0.554   0.197   2.115
  307SOL    HW2  941   0.527   0.351   2.159
  308SOL     OW  942   1.754   1.223   3.450
  308SOL    HW1  943   1.845   1.184   3.437
  308SOL    HW2  944   1.762   1.319   3.474
  309SOL     OW  945   1.064   1.347   3.202
  309SOL    HW1  946   0.984   1.324   3.257
  309SOL    HW2  947   1.147   1.321   3.251
  310SOL     OW  948   1.592   1.629   3.487
  310SOL    HW1  949   1.619   1.663   3.397
  310SOL    HW2  950   1.671   1.591   3.533
  311SOL     OW  951   1.111   1.195   2.962
  311SOL    HW1  952   1.071   1.239   3.043
  311SOL    HW2  953   1.070   1.232   2.879
  312SOL     OW  954   1.638   1.099   2.941
  312SOL    HW1  955   1.643   1.180   3.000
  312SOL    HW2  956   1.552   1.101   2.890
  313SOL     OW  957   0.915   0.089   3.264
  313SOL    HW1  958   0.940   0.069   3.169
  313SOL    HW2  959   0.987   0.145   3.306
  314SOL     OW  960   0.980   1.116   3.581
  314SOL    HW1  961   0.881   1.122   3.591
  314SOL    HW2  962   1.003   1.036   3.525
  315SOL     OW  963   0.705   1.050   2.230
  315SOL    HW1  964   0.691   1.057   2.329
  315SOL    HW2  965   0.789   0.999   2.212
  316SOL     OW  966   0.410   0.813   3.113
  316SOL    HW1  967   0.496   0.825   3.163
  316SOL    HW2  968   0.368   0.726   3.140
  317SOL     OW  969   1.274   0.386   3.124
  317SOL    HW1  970   1.295   0.460   3.188
  317SOL    HW2  971   1.185   0.403   3.081
  318SOL     OW  972   0.064   1.564   3.193
  318SOL    HW1  973   0.018   1.646   3.159
  318SOL    HW2  974   0.162   1.583   3.202
  319SOL     OW  975   0.367   1.100   2.363
  319SOL    HW1  976   0.360   1.183   2.307
  319SOL    HW2  977   0.371   1.020   2.303
  320SOL     OW  978   0.566   0.537   2.727
  320SOL    HW1  979   0.578   0.603   2.653
  320SOL    HW2  980   0.612   0.571   2.810
  321SOL     OW  981   1.252   1.348   2.250
  321SOL    HW1  982   1.302   1.425   2.290
  321SOL    HW2  983   1.157   1.350   2.282
  322SOL     OW  984   1.272   1.445   3.004
  322SOL    HW1  985   1.319   1.458   3.091
  322SOL    HW2  986   1.206   1.371   3.013
  323SOL     OW  987   1.582   0.639   2.334
  323SOL    HW1  988   1.551   0.700   2.407
  323SOL    HW2  989   1.632   0.691   2.265
  324SOL     OW  990   0.354   1.510   3.191
  324SOL    HW1  991   0.333   1.466   3.104
  324SOL    HW2  992   0.451   1.536   3.194
  325SOL     OW  993   0.402   0.751   3.460
  325SOL    HW1  994   0.470   0.806   3.413
  325SOL    HW2  995   0.442   0.663   3.487
  326SOL     OW  996   1.587   0.779   3.532
  326SOL    HW1  997   1.495   0.817   3.527
  326SOL    HW2  998   1.647   0.826   3.467
  327SOL     OW  999   1.013   0.105   3.632
  327SOL    HW1 1000   1.019   0.190   3.580
  327SOL    HW2 1001   1.045   0.029   3.575
  328SOL     OW 1002   0.504   0.050   3.602
  328SOL    HW1 1003   0.462  -0.007   3.532
  328SOL    HW2 1004   0.438   0.119   3.634
  329SOL     OW 1005   0.573   0.870   2.891
  329SOL    HW1 1006   0.617   0.959   2.882
  329SOL    HW2 1007   0.510   0.870   2.968
  330SOL     OW 1008   1.360   0.862   2.907
  330SOL    HW1 1009   1.285   0.862   2.841
  330SOL    HW2 1010   1.397   0.770   2.916
  331SOL     OW 1011   1.209   0.525   2.137
  331SOL    HW1 1012   1.222   0.441   2.191
  331SOL    HW2 1013   1.180   0.599   2.197
  332SOL     OW 1014   0.307   0.213   3.093
  332SOL    HW1 1015   0.284   0.250   3.183
  332SOL    HW2 1016   0.277   0.118   3.087
  333SOL     OW 1017   0.037   1.310   3.144
  333SOL    HW1 1018   0.090   1.261   3.212
  333SOL    HW2 1019   0.059   1.408   3.149
  334SOL     OW 1020   0.732   0.634   2.926
  334SOL    HW1 1021   0.791   0.608   2.850
  334SOL    HW2 1022   0.704   0.730   2.915
  335SOL     OW 1023   1.728   0.935   3.716
  335SOL    HW1 1024   1.682   0.928   3.627
  335SOL    HW2 1025   1.666   0.979   3.782
  336SOL     OW 1026   0.307   0.063   2.480
  336SOL    HW1 1027   0.296   0.157   2.513
  336SOL    HW2 1028   0.302   0.000   2.557
  337SOL     OW 1029   1.622   0.367   2.236
  337SOL    HW1 1030   1.624   0.291   2.300
  337SOL    HW2 1031   1.574   0.444   2.276
  338SOL     OW 1032   1.023   0.766   2.828
  338SOL    HW1 1033   1.038   0.787   2.924
  338SOL    HW2 1034   0.993   0.671   2.819
  339SOL     OW 1035   0.980   1.573   3.562
  339SOL    HW1 1036   0.960   1.617   3.474
  339SOL    HW2 1037   1.019   1.482   3.546
  340SOL     OW 1038   1.859   1.518   3.467
  340SOL    HW1 1039   1.873   1.545   3.372
  340SOL    HW2 1040   1.942   1.540   3.520
  341SOL     OW 1041   0.350   0.898   3.666
  341SOL    HW1 1042   0.426   0.942   3.714
  341SOL    HW2 1043   0.385   0.851   3.584
  342SOL     OW 1044   1.540   0.274   1.987
  342SOL    HW1 1045   1.479   0.199   2.010
  342SOL    HW2 1046   1.562   0.326   2.070
  343SOL     OW 1047   1.303   0.838   1.904
  343SOL    HW1 1048   1.337   0.745   1.919
  343SOL    HW2 1049   1.321   0.865   1.809
  344SOL     OW 1050   1.068   1.333   2.711
  344SOL    HW1 1051   1.075   1.249   2.656
  344SOL    HW2 1052   1.130   1.402   2.675
  345SOL     OW 1053   0.319   0.810   2.811
  345SOL    HW1 1054   0.412   0.846   2.816
  345SOL    HW2 1055   0.313   0.725   2.863
  346SOL     OW 1056   0.339   0.509   2.868
  346SOL    HW1 1057   0.287   0.426   2.851
  346SOL    HW2 1058   0.416   0.514   2.804
  347SOL     OW 1059   1.138   0.380   3.540
  347SOL    HW1 1060   1.093   0.443   3.604
  347SOL    HW2 1061   1.231   0.411   3.523
  348SOL     OW 1062   1.160   0.207   3.339
  348SOL    HW1 1063   1.160   0.271   3.416
  348SOL    HW2 1064   1.188   0.255   3.256
  349SOL     OW 1065   0.008   1.326   2.062
  349SOL    HW1 1066  -0.085   1.347   2.031
  349SOL    HW2 1067   0.018   1.227   2.075
  350SOL     OW 1068   0.088   1.801   2.789
  350SOL    HW1 1069   0.046   1.715   2.762
  350SOL    HW2 1070   0.182   1.804   2.755
  351SOL     OW 1071   0.504   1.568   2.772
  351SOL    HW1 1072   0.570   1.642   2.781
  351SOL    HW2 1073   0.548   1.489   2.730
  352SOL     OW 1074   1.002   0.796   3.100
  352SOL    HW1 1075   1.043   0.764   3.186
  352SOL    HW2 1076   0.906   0.769   3.097
  353SOL     OW 1077   0.040   0.544   2.976
  353SOL    HW1 1078   0.125   0.511   2.935
  353SOL    HW2 1079   0.053   0.559   3.074
  354SOL     OW 1080   0.189   0.520   3.584
  354SOL    HW1 1081   0.248   0.480   3.514
  354SOL    HW2 1082   0.131   0.591   3.543
  355SOL     OW 1083   1.369   0.950   3.522
  355SOL    HW1 1084   1.408   1.039   3.542
  355SOL    HW2 1085   1.379   0.930   3.425
  356SOL     OW 1086   0.815   0.572   2.187
  356SOL    HW1 1087   0.822   0.483   2.141
  356SOL    HW2 1088   0.721   0.606   2.179
  357SOL     OW 1089   1.657   0.604   3.068
  357SOL    HW1 1090   1.619   0.535   3.130
  357SOL    HW2 1091   1.739   0.568   3.024
  358SOL     OW 1092   0.252   1.564   3.606
  358SOL    HW1 1093   0.222   1.621   3.682
  358SOL    HW2 1094   0.245   1.467   3.632
  359SOL     OW 1095   0.671   0.464   3.131
  359SOL    HW1 1096   0.637   0.375   3.101
  359SOL    HW2 1097   0.697   0.518   3.051
  360SOL     OW 1098   0.930   1.678   3.327
  360SOL    HW1 1099   0.906   1.660   3.232
  360SOL    HW2 1100   0.960   1.772   3.337
  361SOL     OW 1101   0.473   0.500   2.053
  361SOL    HW1 1102   0.534   0.580   2.057
  361SOL    HW2 1103   0.378   0.531   2.060
  362SOL     OW 1104   0.159   1.137   3.328
  362SOL    HW1 1105   0.181   1.076   3.404
  362SOL    HW2 1106   0.169   1.088   3.242
  363SOL     OW 1107   1.347   1.059   3.096
  363SOL    HW1 1108   1.371   0.996   3.022
  363SOL    HW2 1109   1.257   1.099   3.078
  364SOL     OW 1110   1.302   0.855   2.171
  364SOL    HW1 1111   1.216   0.824   2.213
  364SOL    HW2 1112   1.298   0.841   2.072
  365SOL     OW 1113   1.759   1.747   3.016
  365SOL    HW1 1114   1.820   1.777   2.943
  365SOL    HW2 1115   1.721   1.658   2.994
  366SOL     OW 1116   1.252   1.731   2.990
  366SOL    HW1 1117   1.336   1.736   2.936
  366SOL    HW2 1118   1.229   1.635   3.008
  367SOL     OW 1119   0.083   1.258   2.884
  367SOL    HW1 1120   0.078   1.257   2.984
  367SOL    HW2 1121   0.000   1.217   2.846
  368SOL     OW 1122   0.688   1.662   3.578
  368SOL    HW1 1123   0.632   1.743   3.587
  368SOL    HW2 1124   0.740   1.666   3.492
  369SOL     OW 1125   1.726   0.135   2.385
  369SOL    HW1 1126   1.799   0.118   2.318
  369SOL    HW2 1127   1.695   0.048   2.423
  370SOL     OW 1128   1.388   1.573   2.339
  370SOL    HW1 1129   1.455   1.585   2.265
  370SOL    HW2 1130   1.348   1.662   2.362
  371SOL     OW 1131   0.130   1.794   3.713
  371SOL    HW1 1132   0.089   1.720   3.766
  371SOL    HW2 1133   0.194   1.845   3.771
  372SOL     OW 1134   1.280   0.927   2.534
  372SOL    HW1 1135   1.340   0.846   2.536
  372SOL    HW2 1136   1.320   0.996   2.474
  373SOL     OW 1137   0.830   1.273   3.284
  373SOL    HW1 1138   0.825   1.306   3.379
  373SOL    HW2 1139   0.744   1.292   3.238
  374SOL     OW 1140   0.672   1.616   2.016
  374SOL    HW1 1141   0.681   1.626   1.917
  374SOL    HW2 1142   0.632   1.527   2.037
  375SOL     OW 1143   1.650   1.720   3.256
  375SOL    HW1 1144   1.703   1.730   3.172
  375SOL    HW2 1145   1.623   1.810   3.290
  376SOL     OW 1146   1.841   0.175   2.825
  376SOL    HW1 1147   1.880   0.090   2.789
  376SOL    HW2 1148   1.743   0.177   2.806
  377SOL     OW 1149   0.263   0.326   2.582
  377SOL    HW1 1150   0.184   0.377   2.548
  377SOL    HW2 1151   0.254   0.311   2.680
  378SOL     OW 1152   1.194   1.612   1.893
  378SOL    HW1 1153   1.200   1.519   1.930
  378SOL    HW2 1154   1.135   1.612   1.813
  379SOL     OW 1155   0.822   1.002   3.234
  379SOL    HW1 1156   0.862   1.001   3.142
  379SOL    HW2 1157   0.832   1.094   3.274
  380SOL     OW 1158   0.916   0.910   2.153
  380SOL    HW1 1159   0.979   0.948   2.085
  380SOL    HW2 1160   0.956   0.827   2.192
  381SOL     OW 1161   1.504   1.607   1.906
  381SOL    HW1 1162   1.412   1.644   1.913
  381SOL    HW2 1163   1.542   1.627   1.816
  382SOL     OW 1164   0.372   1.288   3.352
  382SOL    HW1 1165   0.359   1.381   3.318
  382SOL    HW2 1166   0.288   1.236   3.339
  383SOL     OW 1167   1.614   1.292   3.151
  383SOL    HW1 1168   1.674   1.295   3.231
  383SOL    HW2 1169   1.539   1.356   3.164
  384SOL     OW 1170   1.039   1.098   2.558
  384SOL    HW1 1171   0.969   1.051   2.612
  384SOL    HW2 1172   1.098   1.030   2.515
  385SOL     OW 1173   1.014   0.236   2.833
  385SOL    HW1 1174   1.006   0.200   2.740
  385SOL    HW2 1175   1.012   0.160   2.898
  386SOL     OW 1176   0.590   1.487   2.353
  386SOL    HW1 1177   0.632   1.429   2.283
  386SOL    HW2 1178   0.546   1.566   2.309
  387SOL     OW 1179   1.709   0.385   3.243
  387SOL    HW1 1180   1.782   0.454   3.247
  387SOL    HW2 1181   1.737   0.310   3.184
  388SOL     OW 1182   0.255   1.348   2.152
  388SOL    HW1 1183   0.159   1.349   2.125
  388SOL    HW2 1184   0.267   1.401   2.236
  389SOL     OW 1185   0.105   1.013   3.588
  389SOL    HW1 1186   0.028   0.980   3.642
  389SOL    HW2 1187   0.190   0.983   3.630
  390SOL     OW 1188   0.672   0.203   3.351
  390SOL    HW1 1189   0.762   0.187   3.311
  390SOL    HW2 1190   0.680   0.208   3.450
  391SOL     OW 1191   0.075   0.345   1.895
  391SOL    HW1 1192  -0.017   0.317   1.866
  391SOL    HW2 1193   0.106   0.422   1.839
  392SOL     OW 1194   1.440   0.856   3.260
  392SOL    HW1 1195   1.383   0.908   3.197
  392SOL    HW2 1196   1.536   0.868   3.236
  393SOL     OW 1197   0.072   0.166   2.180
  393SOL    HW1 1198   0.055   0.249   2.126
  393SOL    HW2 1199   0.162   0.129   2.158
  394SOL     OW 1200   1.183   1.335   1.981
  394SOL    HW1 1201   1.084   1.324   1.983
  394SOL    HW2 1202   1.217   1.350   2.074
  395SOL     OW 1203   0.613   0.842   3.293
  395SOL    HW1 1204   0.669   0.923   3.276
  395SOL    HW2 1205   0.672   0.762   3.296
  396SOL     OW 1206   1.493   1.767   2.821
  396SOL    HW1 1207   1.526   1.831   2.752
  396SOL    HW2 1208   1.559   1.761   2.896
  397SOL     OW 1209   0.716   0.565   3.570
  397SOL    HW1 1210   0.735   0.630   3.644
  397SOL    HW2 1211   0.776   0.485   3.579
  398SOL     OW 1212   1.450   1.220   3.495
  398SOL    HW1 1213   1.441   1.210   3.594
  398SOL    HW2 1214   1.546   1.213   3.469
  399SOL     OW 1215   0.390   1.741   3.422
  399SOL    HW1 1216   0.299   1.782   3.420
  399SOL    HW2 1217   0.383   1.647   3.454
  400SOL     OW 1218   1.674   0.883   3.116
  400SOL    HW1 1219   1.647   0.794   3.079
  400SOL    HW2 1220   1.675   0.951   3.043
  401SOL     OW 1221   1.225   0.325   2.311
  401SOL    HW1 1222   1.290   0.251   2.300
  401SOL    HW2 1223   1.245   0.375   2.395
  402SOL     OW 1224   0.594   0.745   2.514
  402SOL    HW1 1225   0.644   0.830   2.495
  402SOL    HW2 1226   0.506   0.747   2.466
  403SOL     OW 1227   1.777   0.342   3.504
  403SOL    HW1 1228   1.760   0.373   3.410
  403SOL    HW2 1229   1.693   0.305   3.542
  404SOL     OW 1230   1.730   0.934   3.379
  404SOL    HW1 1231   1.768   1.025   3.394
  404SOL    HW2 1232   1.722   0.917   3.280
  405SOL     OW 1233   0.859   1.374   1.878
  405SOL    HW1 1234   0.813   1.389   1.966
  405SOL    HW2 1235   0.903   1.459   1.848
  406SOL     OW 1236   0.661   1.790   2.815
  406SOL    HW1 1237   0.615   1.878   2.802
  406SOL    HW2 1238   0.760   1.802   2.808
  407SOL     OW 1239   0.859   0.956   2.723
  407SOL    HW1 1240   0.913   0.887   2.771
  407SOL    HW2 1241   0.827   1.025   2.789
  408SOL     OW 1242   1.083   0.984   1.949
  408SOL    HW1 1243   1.060   1.037   1.867
  408SOL    HW2 1244   1.164   0.928   1.930
  409SOL     OW 1245   1.861   1.569   2.713
  409SOL    HW1 1246   1.790   1.557   2.643
  409SOL    HW2 1247   1.862   1.490   2.773
  410SOL     OW 1248   0.221   1.314   3.706
  410SOL    HW1 1249   0.156   1.241   3.685
  410SOL    HW2 1250   0.225   1.328   3.804
  411SOL     OW 1251   0.079   1.240   2.515
  411SOL    HW1 1252   0.078   1.193   2.603
  411SOL    HW2 1253   0.161   1.212   2.464
  412SOL     OW 1254   0.672   1.391   3.486
  412SOL    HW1 1255   0.594   1.341   3.524
  412SOL    HW2 1256   0.669   1.486   3.517
  413SOL     OW 1257   1.824   0.192   3.089
  413SOL    HW1 1258   1.820   0.102   3.133
  413SOL    HW2 1259   1.827   0.181   2.990
  414SOL     OW 1260   0.428   0.424   2.382
  414SOL    HW1 1261   0.458   0.352   2.320
  414SOL    HW2 1262   0.389   0.384   2.465
  415SOL     OW 1263   1.705   1.487   2.966
  415SOL    HW1 1264   1.612   1.462   2.939
  415SOL    HW2 1265   1.731   1.437   3.048
  416SOL     OW 1266   0.317   0.547   3.142
  416SOL    HW1 1267   0.355   0.488   3.214
  416SOL    HW2 1268   0.357   0.521   3.054
  417SOL     OW 1269   0.812   1.586   2.549
  417SOL    HW1 1270   0.844   1.596   2.455
  417SOL    HW2 1271   0.733   1.524   2.551
  418SOL     OW 1272   1.424   0.214   2.974
  418SOL    HW1 1273   1.476   0.149   3.029
  418SOL    HW2 1274   1.375   0.277   3.035
  419SOL     OW 1275   1.001   0.034   3.016
  419SOL    HW1 1276   0.938  -0.038   2.985
  419SOL    HW2 1277   1.094  -0.002   3.016
  420SOL     OW 1278   0.770   1.330   2.163
  420SOL    HW1 1279   0.724   1.243   2.180
  420SOL    HW2 1280   0.861   1.327   2.204
  421SOL     OW 1281   0.618   1.567   3.146
  421SOL    HW1 1282   0.613   1.649   3.203
  421SOL    HW2 1283   0.707   1.564   3.101
  422SOL     OW 1284   1.352   0.052   2.030
  422SOL    HW1 1285   1.387   0.011   1.946
  422SOL    HW2 1286   1.262   0.014   2.050
  423SOL     OW 1287   1.300   0.453   2.553
  423SOL    HW1 1288   1.241   0.533   2.557
  423SOL    HW2 1289   1.315   0.418   2.646
  424SOL     OW 1290   1.593   0.221   2.744
  424SOL    HW1 1291   1.509   0.220   2.798
  424SOL    HW2 1292   1.595   0.304   2.688
  425SOL     OW 1293   0.039   1.077   2.162
  425SOL    HW1 1294   0.138   1.066   2.153
  425SOL    HW2 1295  -0.001   0.991   2.194
  426SOL     OW 1296   0.875   1.646   2.199
  426SOL    HW1 1297   0.798   1.611   2.145
  426SOL    HW2 1298   0.843   1.717   2.261
  427SOL     OW 1299   0.230   0.628   3.837
  427SOL    HW1 1300   0.137   0.626   3.874
  427SOL    HW2 1301   0.231   0.589   3.745
  428SOL     OW 1302   0.019   0.368   4.371
  428SOL    HW1 1303  -0.063   0.411   4.410
  428SOL    HW2 1304  -0.009   0.295   4.308
  429SOL     OW 1305   1.555   1.511   4.427
  429SOL    HW1 1306   1.498   1.495   4.508
  429SOL    HW2 1307   1.496   1.521   4.347
  430SOL     OW 1308   1.135   0.703   4.441
  430SOL    HW1 1309   1.192   0.781   4.416
  430SOL    HW2 1310   1.075   0.729   4.517
  431SOL     OW 1311   1.755   0.607   3.955
  431SOL    HW1 1312   1.743   0.594   3.856
  431SOL    HW2 1313   1.725   0.526   4.004
  432SOL     OW 1314   0.768   1.144   4.747
  432SOL    HW1 1315   0.690   1.161   4.807
  432SOL    HW2 1316   0.802   1.231   4.711
  433SOL     OW 1317   0.685   1.012   4.389
  433SOL    HW1 1318   0.754   0.996   4.459
  433SOL    HW2 1319   0.612   1.069   4.427
  434SOL     OW 1320   1.603   0.447   4.461
  434SOL    HW1 1321   1.529   0.493   4.411
  434SOL    HW2 1322   1.654   0.515   4.514
  435SOL     OW 1323   0.231   1.713   4.207
  435SOL    HW1 1324   0.265   1.790   4.261
  435SOL    HW2 1325   0.275   1.713   4.117
  436SOL     OW 1326   0.230   1.434   4.262
  436SOL    HW1 1327   0.204   1.530   4.262
  436SOL    HW2 1328   0.159   1.380   4.307
  437SOL     OW 1329   0.240   1.091   4.610
  437SOL    HW1 1330   0.254   1.007   4.662
  437SOL    HW2 1331   0.185   1.155   4.665
  438SOL     OW 1332   0.606   0.964   3.847
  438SOL    HW1 1333   0.613   1.048   3.793
  438SOL    HW2 1334   0.652   0.977   3.935
  439SOL     OW 1335   0.122   0.643   4.287
  439SOL    HW1 1336   0.077   0.555   4.304
  439SOL    HW2 1337   0.121   0.697   4.371
  440SOL     OW 1338   1.842   1.767   4.083
  440SOL    HW1 1339   1.896   1.738   4.163
  440SOL    HW2 1340   1.872   1.857   4.054
  441SOL     OW 1341   0.027   1.596   3.841
  441SOL    HW1 1342   0.008   1.500   3.862
  441SOL    HW2 1343  -0.006   1.654   3.916
  442SOL     OW 1344   1.689   0.922   4.336
  442SOL    HW1 1345   1.784   0.893   4.344
  442SOL    HW2 1346   1.681   0.987   4.261
  443SOL     OW 1347   1.641   1.108   4.156
  443SOL    HW1 1348   1.727   1.110   4.104
  443SOL    HW2 1349   1.655   1.155   4.244
  444SOL     OW 1350   0.613   1.365   4.450
  444SOL    HW1 1351   0.564   1.278   4.459
  444SOL    HW2 1352   0.590   1.408   4.363
  445SOL     OW 1353   0.809   0.004   4.226
  445SOL    HW1 1354   0.849   0.095   4.217
  445SOL    HW2 1355   0.709   0.012   4.232
  446SOL     OW 1356   1.525   0.999   3.914
  446SOL    HW1 1357   1.462   0.923   3.927
  446SOL    HW2 1358   1.573   1.017   4.000
  447SOL     OW 1359   1.466   1.417   4.677
  447SOL    HW1 1360   1.407   1.423   4.757
  447SOL    HW2 1361   1.451   1.329   4.631
  448SOL     OW 1362   1.667   1.714   4.296
  448SOL    HW1 1363   1.626   1.691   4.208
  448SOL    HW2 1364   1.649   1.640   4.361
  449SOL     OW 1365   0.598   0.729   3.994
  449SOL    HW1 1366   0.622   0.798   3.926
  449SOL    HW2 1367   0.520   0.762   4.048
  450SOL     OW 1368   1.281   0.345   4.668
  450SOL    HW1 1369   1.195   0.295   4.655
  450SOL    HW2 1370   1.343   0.291   4.724
  451SOL     OW 1371   1.576   1.662   4.031
  451SOL    HW1 1372   1.665   1.708   4.034
  451SOL    HW2 1373   1.555   1.638   3.936
  452SOL     OW 1374   1.041   0.701   4.153
  452SOL    HW1 1375   1.067   0.697   4.249
  452SOL    HW2 1376   0.956   0.650   4.139
  453SOL     OW 1377   0.076   0.811   4.513
  453SOL    HW1 1378   0.175   0.799   4.522
  453SOL    HW2 1379   0.052   0.906   4.534
  454SOL     OW 1380   0.865   0.348   3.919
  454SOL    HW1 1381   0.924   0.411   3.870
  454SOL    HW2 1382   0.884   0.254   3.890
  455SOL     OW 1383   1.362   1.144   4.269
  455SOL    HW1 1384   1.445   1.115   4.221
  455SOL    HW2 1385   1.313   1.211   4.213
  456SOL     OW 1386   1.008   1.456   4.201
  456SOL    HW1 1387   0.962   1.528   4.149
  456SOL    HW2 1388   1.004   1.476   4.299
  457SOL     OW 1389   0.351   1.801   4.577
  457SOL    HW1 1390   0.401   1.715   4.583
  457SOL    HW2 1391   0.416   1.878   4.574
  458SOL     OW 1392   1.795   1.066   4.597
  458SOL    HW1 1393   1.733   1.051   4.521
  458SOL    HW2 1394   1.743   1.077   4.682
  459SOL     OW 1395   0.321   0.943   3.966
  459SOL    HW1 1396   0.403   0.982   3.924
  459SOL    HW2 1397   0.294   0.861   3.917
  460SOL     OW 1398   1.458   0.735   4.452
  460SOL    HW1 1399   1.453   0.670   4.527
  460SOL    HW2 1400   1.538   0.794   4.465
  461SOL     OW 1401   1.111   1.776   3.961
  461SOL    HW1 1402   1.051   1.714   4.011
  461SOL    HW2 1403   1.142   1.732   3.876
  462SOL     OW 1404   1.632   1.377   3.805
  462SOL    HW1 1405   1.600   1.471   3.795
  462SOL    HW2 1406   1.556   1.314   3.793
  463SOL     OW 1407   0.464   1.743   4.047
  463SOL    HW1 1408   0.497   1.782   4.133
  463SOL    HW2 1409   0.540   1.736   3.982
  464SOL     OW 1410   1.400   0.107   4.150
  464SOL    HW1 1411   1.376   0.070   4.060
  464SOL    HW2 1412   1.499   0.123   4.154
  465SOL     OW 1413   0.382   0.700   4.204
  465SOL    HW1 1414   0.427   0.610   4.201
  465SOL    HW2 1415   0.288   0.689   4.237
  466SOL     OW 1416   0.614   0.122   3.841
  466SOL    HW1 1417   0.712   0.100   3.848
  466SOL    HW2 1418   0.583   0.105   3.748
  467SOL     OW 1419   0.922   0.503   4.623
  467SOL    HW1 1420   0.897   0.494   4.527
  467SOL    HW2 1421   0.970   0.421   4.654
  468SOL     OW 1422   0.539   0.064   4.236
  468SOL    HW1 1423   0.458   0.065   4.294
  468SOL    HW2 1424   0.542   0.147   4.181
  469SOL     OW 1425   1.434   1.188   3.765
  469SOL    HW1 1426   1.466   1.112   3.822
  469SOL    HW2 1427   1.342   1.215   3.795
  470SOL     OW 1428   0.297   0.035   3.895
  470SOL    HW1 1429   0.346   0.119   3.874
  470SOL    HW2 1430   0.359  -0.030   3.940
  471SOL     OW 1431   0.935   0.236   4.204
  471SOL    HW1 1432   0.887   0.277   4.126
  471SOL    HW2 1433   1.034   0.234   4.185
  472SOL     OW 1434   1.227   1.570   4.517
  472SOL    HW1 1435   1.248   1.644   4.452
  472SOL    HW2 1436   1.295   1.570   4.590
  473SOL     OW 1437   0.459   1.152   4.465
  473SOL    HW1 1438   0.388   1.125   4.530
  473SOL    HW2 1439   0.433   1.124   4.372
  474SOL     OW 1440   1.271   1.797   4.315
  474SOL    HW1 1441   1.315   1.861   4.251
  474SOL    HW2 1442   1.221   1.849   4.385
  475SOL     OW 1443   1.032   0.549   3.740
  475SOL    HW1 1444   0.991   0.631   3.701
  475SOL    HW2 1445   1.096   0.575   3.813
  476SOL     OW 1446   0.866   0.454   4.366
  476SOL    HW1 1447   0.834   0.526   4.304
  476SOL    HW2 1448   0.890   0.373   4.313
  477SOL     OW 1449   1.017   0.039   4.477
  477SOL    HW1 1450   0.945   0.044   4.408
  477SOL    HW2 1451   0.993  -0.030   4.546
  478SOL     OW 1452   1.429   1.173   4.591
  478SOL    HW1 1453   1.374   1.089   4.584
  478SOL    HW2 1454   1.455   1.202   4.499
  479SOL     OW 1455   1.857   0.833   4.101
  479SOL    HW1 1456   1.899   0.769   4.165
  479SOL    HW2 1457   1.819   0.782   4.023
  480SOL     OW 1458   0.488   1.385   3.898
  480SOL    HW1 1459   0.401   1.370   3.945
  480SOL    HW2 1460   0.471   1.411   3.803
  481SOL     OW 1461   1.664   1.280   4.381
  481SOL    HW1 1462   1.763   1.288   4.395
  481SOL    HW2 1463   1.619   1.364   4.412
  482SOL     OW 1464   1.390   0.575   3.802
  482SOL    HW1 1465   1.336   0.554   3.883
  482SOL    HW2 1466   1.481   0.534   3.811
  483SOL     OW 1467   0.527   0.256   4.052
  483SOL    HW1 1468   0.554   0.197   3.977
  483SOL    HW2 1469   0.527   0.351   4.021
  484SOL     OW 1470   0.705   1.050   4.092
  484SOL    HW1 1471   0.691   1.057   4.191
  484SOL    HW2 1472   0.789   0.999   4.074
  485SOL     OW 1473   0.367   1.100   4.225
  485SOL    HW1 1474   0.360   1.183   4.169
  485SOL    HW2 1475   0.371   1.020   4.165
  486SOL     OW 1476   0.566   0.537   4.589
  486SOL    HW1 1477   0.578   0.603   4.515
  486SOL    HW2 1478   0.612   0.571   4.672
  487SOL     OW 1479   1.252   1.348   4.112
  487SOL    HW1 1480   1.302   1.425   4.152
  487SOL    HW2 1481   1.157   1.350   4.144
  488SOL     OW 1482   1.582   0.639   4.196
  488SOL    HW1 1483   1.551   0.700   4.269
  488SOL    HW2 1484   1.632   0.691   4.127
  489SOL     OW 1485   1.209   0.525   3.999
  489SOL    HW1 1486   1.222   0.441   4.053
  489SOL    HW2 1487   1.180   0.599   4.059
  490SOL     OW 1488   0.732   0.634   4.788
  490SOL    HW1 1489   0.791   0.608   4.712
  490SOL    HW2 1490   0.704   0.730   4.777
  491SOL     OW 1491   0.307   0.063   4.342
  491SOL    HW1 1492   0.296   0.157   4.375
  491SOL    HW2 1493   0.302   0.000   4.419
  492SOL     OW 1494   1.622   0.367   4.098
  492SOL    HW1 1495   1.624   0.291   4.162
  492SOL    HW2 1496   1.574   0.444   4.138
  493SOL     OW 1497   1.540   0.274   3.849
  493SOL    HW1 1498   1.479   0.199   3.872
  493SOL    HW2 1499   1.562   0.326   3.932
  494SOL     OW 1500   1.303   0.838   3.766
  494SOL    HW1 1501   1.337   0.745   3.781
  494SOL    HW2 1502   1.321   0.865   3.671
  495SOL     OW 1503   1.068   1.333   4.573
  495SOL    HW1 1504   1.075   1.249   4.518
  495SOL    HW2 1505   1.130   1.402   4.537
  496SOL     OW 1506   0.319   0.810   4.673
  496SOL    HW1 1507   0.412   0.846   4.678
  496SOL    HW2 1508   0.313   0.725   4.725
  497SOL     OW 1509   0.008   1.326   3.924
  497SOL    HW1 1510  -0.085   1.347   3.893
  497SOL    HW2 1511   0.018   1.227   3.937
  498SOL     OW 1512   0.088   1.801   4.651
  498SOL    HW1 1513   0.046   1.715   4.624
  498SOL    HW2 1514   0.182   1.804   4.617
  499SOL     OW 1515   0.504   1.568   4.634
  499SOL    HW1 1516   0.570   1.642   4.643
  499SOL    HW2 1517   0.548   1.489   4.592
  500SOL     OW 1518   0.815   0.572   4.049
  500SOL    HW1 1519   0.822   0.483   4.003
  500SOL    HW2 1520   0.721   0.606   4.041
  501SOL     OW 1521   0.473   0.500   3.915
  501SOL    HW1 1522   0.534   0.580   3.919
  501SOL    HW2 1523   0.378   0.531   3.922
  502SOL     OW 1524   1.302   0.855   4.033
  502SOL    HW1 1525   1.216   0.824   4.075
  502SOL    HW2 1526   1.298   0.841   3.934
  503SOL     OW 1527   1.759   1.747   4.878
  503SOL    HW1 1528   1.820   1.777   4.805
  503SOL    HW2 1529   1.721   1.658   4.856
  504SOL     OW 1530   1.726   0.135   4.247
  504SOL    HW1 1531   1.799   0.118   4.180
  504SOL    HW2 1532   1.695   0.048   4.285
  505SOL     OW 1533   1.388   1.573   4.201
  505SOL    HW1 1534   1.455   1.585   4.127
  505SOL    HW2 1535   1.348   1.662   4.224
  506SOL     OW 1536   1.280   0.927   4.396
  506SOL    HW1 1537   1.340   0.846   4.398
  506SOL    HW2 1538   1.320   0.996   4.336
  507SOL     OW 1539   0.672   1.616   3.878
  507SOL    HW1 1540   0.681   1.626   3.779
  507SOL    HW2 1541   0.632   1.527   3.899
  508SOL     OW 1542   1.841   0.175   4.687
  508SOL    HW1 1543   1.880   0.090   4.651
  508SOL    HW2 1544   1.743   0.177   4.668
  509SOL     OW 1545   0.263   0.326   4.444
  509SOL    HW1 1546   0.184   0.377   4.410
  509SOL    HW2 1547   0.254   0.311   4.542
  510SOL     OW 1548   1.194   1.612   3.755
  510SOL    HW1 1549   1.200   1.519   3.792
  510SOL    HW2 1550   1.135   1.612   3.675
  511SOL     OW 1551   0.916   0.910   4.015
  511SOL    HW1 1552   0.979   0.948   3.947
  511SOL    HW2 1553   0.956   0.827   4.054
  512SOL     OW 1554   1.504   1.607   3.768
  512SOL    HW1 1555   1.412   1.644   3.775
  512SOL    HW2 1556   1.542   1.627   3.678
  513SOL     OW 1557   1.039   1.098   4.420
  513SOL    HW1 1558   0.969   1.051   4.474
  513SOL    HW2 1559   1.098   1.030   4.377
  514SOL     OW 1560   0.590   1.487   4.215
  514SOL    HW1 1561   0.632   1.429   4.145
  514SOL    HW2 1562   0.546   1.566   4.171
  515SOL     OW 1563   0.255   1.348   4.014
  515SOL    HW1 1564   0.159   1.349   3.987
  515SOL    HW2 1565   0.267   1.401   4.098
  516SOL     OW 1566   0.075   0.345   3.757
  516SOL    HW1 1567  -0.017   0.317   3.728
  516SOL    HW2 1568   0.106   0.422   3.701
  517SOL     OW 1569   0.072   0.166   4.042
  517SOL    HW1 1570   0.055   0.249   3.988
  517SOL    HW2 1571   0.162   0.129   4.020
  518SOL     OW 1572   1.183   1.335   3.843
  518SOL    HW1 1573   1.084   1.324   3.845
  518SOL    HW2 1574   1.217   1.350   3.936
  519SOL     OW 1575   1.674   0.883   4.978
  519SOL    HW1 1576   1.647   0.794   4.941
  519SOL    HW2 1577   1.675   0.951   4.905
  520SOL     OW 1578   1.225   0.325   4.173
  520SOL    HW1 1579   1.290   0.251   4.162
  520SOL    HW2 1580   1.245   0.375   4.257
  521SOL     OW 1581   0.594   0.745   4.376
  521SOL    HW1 1582   0.644   0.830   4.357
  521SOL    HW2 1583   0.506   0.747   4.328
  522SOL     OW 1584   0.859   1.374   3.740
  522SOL    HW1 1585   0.813   1.389   3.828
  522SOL    HW2 1586   0.903   1.459   3.710
  523SOL     OW 1587   0.661   1.790   4.677
  523SOL    HW1 1588   0.615   1.878   4.664
  523SOL    HW2 1589   0.760   1.802   4.670
  524SOL     OW 1590   0.859   0.956   4.585
  524SOL    HW1 1591   0.913   0.887   4.633
  524SOL    HW2 1592   0.827   1.025   4.651
  525SOL     OW 1593   1.083   0.984   3.811
  525SOL    HW1 1594   1.060   1.037   3.729
  525SOL    HW2 1595   1.164   0.928   3.792
  526SOL     OW 1596   1.861   1.569   4.575
  526SOL    HW1 1597   1.790   1.557   4.505
  526SOL    HW2 1598   1.862   1.490   4.635
  527SOL     OW 1599   0.079   1.240   4.377
  527SOL    HW1 1600   0.078   1.193   4.465
  527SOL    HW2 1601   0.161   1.212   4.326
  528SOL     OW 1602   1.824   0.192   4.951
  528SOL    HW1 1603   1.820   0.102   4.995
  528SOL    HW2 1604   1.827   0.181   4.852
  529SOL     OW 1605   0.428   0.424   4.244
  529SOL    HW1 1606   0.458   0.352   4.182
  529SOL    HW2 1607   0.389   0.384   4.327
  530SOL     OW 1608   0.812   1.586   4.411
  530SOL    HW1 1609   0.844   1.596   4.317
  530SOL    HW2 1610   0.733   1.524   4.413
  531SOL     OW 1611   0.770   1.330   4.025
  531SOL    HW1 1612   0.724   1.243   4.042
  531SOL    HW2 1613   0.861   1.327   4.066
  532SOL     OW 1614   1.352   0.052   3.892
  532SOL    HW1 1615   1.387   0.011   3.808
  532SOL    HW2 1616   1.262   0.014   3.912
  533SOL     OW 1617   1.300   0.453   4.415
  533SOL    HW1 1618   1.241   0.533   4.419
  533SOL    HW2 1619   1.315   0.418   4.508
  534SOL     OW 1620   1.593   0.221   4.606
  534SOL    HW1 1621   1.509   0.220   4.660
  534SOL    HW2 1622   1.595   0.304   4.550
  535SOL     OW 1623   0.039   1.077   4.024
  535SOL    HW1 1624   0.138   1.066   4.015
  535SOL    HW2 1625  -0.001   0.991   4.056
  536SOL     OW 1626   0.875   1.646   4.061
  536SOL    HW1 1627   0.798   1.611   4.007
  536SOL    HW2 1628   0.843   1.717   4.123
  537SOL     OW 1629   0.230   2.490   0.113
  537SOL    HW1 1630   0.137   2.488   0.150
  537SOL    HW2 1631   0.231   2.451   0.021
  538SOL     OW 1632   0.225   2.137   0.996
  538SOL    HW1 1633   0.260   2.120   1.088
  538SOL    HW2 1634   0.137   2.092   0.984
  539SOL     OW 1635   0.019   2.230   0.647
  539SOL    HW1 1636  -0.063   2.273   0.686
  539SOL    HW2 1637  -0.009   2.157   0.584
  540SOL     OW 1638   0.569   3.137   1.165
  540SOL    HW1 1639   0.476   3.130   1.128
  540SOL    HW2 1640   0.580   3.226   1.209
  541SOL     OW 1641   1.555   3.373   0.703
  541SOL    HW1 1642   1.498   3.357   0.784
  541SOL    HW2 1643   1.496   3.383   0.623
  542SOL     OW 1644   1.135   2.565   0.717
  542SOL    HW1 1645   1.192   2.643   0.692
  542SOL    HW2 1646   1.075   2.591   0.793
  543SOL     OW 1647   1.755   2.469   0.231
  543SOL    HW1 1648   1.743   2.456   0.132
  543SOL    HW2 1649   1.725   2.388   0.280
  544SOL     OW 1650   0.768   3.006   1.023
  544SOL    HW1 1651   0.690   3.023   1.083
  544SOL    HW2 1652   0.802   3.093   0.987
  545SOL     OW 1653   0.850   2.660   1.823
  545SOL    HW1 1654   0.846   2.736   1.888
  545SOL    HW2 1655   0.872   2.696   1.732
  546SOL     OW 1656   0.685   2.874   0.665
  546SOL    HW1 1657   0.754   2.858   0.735
  546SOL    HW2 1658   0.612   2.931   0.703
  547SOL     OW 1659   0.686   3.023   1.803
  547SOL    HW1 1660   0.746   3.102   1.817
  547SOL    HW2 1661   0.600   3.054   1.762
  548SOL     OW 1662   0.335   3.297   1.061
  548SOL    HW1 1663   0.257   3.266   1.008
  548SOL    HW2 1664   0.393   3.355   1.004
  549SOL     OW 1665   1.460   3.367   1.339
  549SOL    HW1 1666   1.484   3.461   1.365
  549SOL    HW2 1667   1.444   3.313   1.421
  550SOL     OW 1668   0.438   2.254   1.499
  550SOL    HW1 1669   0.520   2.198   1.508
  550SOL    HW2 1670   0.357   2.196   1.503
  551SOL     OW 1671   1.603   2.309   0.737
  551SOL    HW1 1672   1.529   2.355   0.687
  551SOL    HW2 1673   1.654   2.377   0.790
  552SOL     OW 1674   0.231   3.575   0.483
  552SOL    HW1 1675   0.265   3.652   0.537
  552SOL    HW2 1676   0.275   3.575   0.393
  553SOL     OW 1677   1.127   3.203   1.690
  553SOL    HW1 1678   1.174   3.203   1.778
  553SOL    HW2 1679   1.079   3.116   1.679
  554SOL     OW 1680   0.230   3.296   0.538
  554SOL    HW1 1681   0.204   3.392   0.538
  554SOL    HW2 1682   0.159   3.242   0.583
  555SOL     OW 1683   0.240   2.953   0.886
  555SOL    HW1 1684   0.254   2.869   0.938
  555SOL    HW2 1685   0.185   3.017   0.941
  556SOL     OW 1686   0.620   3.648   1.439
  556SOL    HW1 1687   0.528   3.631   1.474
  556SOL    HW2 1688   0.648   3.740   1.465
  557SOL     OW 1689   0.606   2.826   0.123
  557SOL    HW1 1690   0.613   2.910   0.069
  557SOL    HW2 1691   0.652   2.839   0.211
  558SOL     OW 1692   1.594   1.976   1.480
  558SOL    HW1 1693   1.576   2.043   1.408
  558SOL    HW2 1694   1.591   2.022   1.569
  559SOL     OW 1695   0.122   2.505   0.563
  559SOL    HW1 1696   0.077   2.417   0.580
  559SOL    HW2 1697   0.121   2.559   0.647
  560SOL     OW 1698   1.842   3.629   0.359
  560SOL    HW1 1699   1.896   3.600   0.439
  560SOL    HW2 1700   1.872   3.719   0.330
  561SOL     OW 1701   0.027   3.458   0.117
  561SOL    HW1 1702   0.008   3.362   0.138
  561SOL    HW2 1703  -0.006   3.516   0.192
  562SOL     OW 1704   1.689   2.784   0.612
  562SOL    HW1 1705   1.784   2.755   0.620
  562SOL    HW2 1706   1.681   2.849   0.537
  563SOL     OW 1707   1.641   2.970   0.432
  563SOL    HW1 1708   1.727   2.972   0.380
  563SOL    HW2 1709   1.655   3.017   0.520
  564SOL     OW 1710   0.113   2.599   1.597
  564SOL    HW1 1711   0.201   2.586   1.642
  564SOL    HW2 1712   0.100   2.696   1.575
  565SOL     OW 1713   0.613   3.227   0.726
  565SOL    HW1 1714   0.564   3.140   0.735
  565SOL    HW2 1715   0.590   3.270   0.639
  566SOL     OW 1716   1.293   3.090   1.423
  566SOL    HW1 1717   1.330   3.017   1.365
  566SOL    HW2 1718   1.345   3.095   1.508
  567SOL     OW 1719   0.809   1.866   0.502
  567SOL    HW1 1720   0.849   1.957   0.493
  567SOL    HW2 1721   0.709   1.874   0.508
  568SOL     OW 1722   0.197   2.838   1.264
  568SOL    HW1 1723   0.286   2.793   1.250
  568SOL    HW2 1724   0.124   2.773   1.245
  569SOL     OW 1725   1.525   2.861   0.190
  569SOL    HW1 1726   1.462   2.785   0.203
  569SOL    HW2 1727   1.573   2.879   0.276
  570SOL     OW 1728   1.187   3.654   1.616
  570SOL    HW1 1729   1.211   3.714   1.540
  570SOL    HW2 1730   1.194   3.559   1.586
  571SOL     OW 1731   0.317   2.113   1.801
  571SOL    HW1 1732   0.388   2.184   1.807
  571SOL    HW2 1733   0.229   2.152   1.829
  572SOL     OW 1734   1.466   3.279   0.953
  572SOL    HW1 1735   1.407   3.285   1.033
  572SOL    HW2 1736   1.451   3.191   0.907
  573SOL     OW 1737   1.667   3.576   0.572
  573SOL    HW1 1738   1.626   3.553   0.484
  573SOL    HW2 1739   1.649   3.502   0.637
  574SOL     OW 1740   0.598   2.591   0.270
  574SOL    HW1 1741   0.622   2.660   0.202
  574SOL    HW2 1742   0.520   2.624   0.324
  575SOL     OW 1743   1.281   2.207   0.944
  575SOL    HW1 1744   1.195   2.157   0.931
  575SOL    HW2 1745   1.343   2.153   1.000
  576SOL     OW 1746   1.576   3.524   0.307
  576SOL    HW1 1747   1.665   3.570   0.310
  576SOL    HW2 1748   1.555   3.500   0.212
  577SOL     OW 1749   0.807   2.467   1.465
  577SOL    HW1 1750   0.760   2.464   1.554
  577SOL    HW2 1751   0.756   2.412   1.399
  578SOL     OW 1752   1.394   2.331   1.674
  578SOL    HW1 1753   1.374   2.374   1.762
  578SOL    HW2 1754   1.472   2.269   1.683
  579SOL     OW 1755   0.973   2.752   1.572
  579SOL    HW1 1756   1.019   2.668   1.543
  579SOL    HW2 1757   0.917   2.786   1.497
  580SOL     OW 1758   0.991   2.272   1.242
  580SOL    HW1 1759   0.914   2.306   1.296
  580SOL    HW2 1760   0.957   2.221   1.163
  581SOL     OW 1761   1.041   2.563   0.429
  581SOL    HW1 1762   1.067   2.559   0.525
  581SOL    HW2 1763   0.956   2.512   0.415
  582SOL     OW 1764   0.076   2.673   0.789
  582SOL    HW1 1765   0.175   2.661   0.798
  582SOL    HW2 1766   0.052   2.768   0.810
  583SOL     OW 1767   0.130   3.683   1.571
  583SOL    HW1 1768   0.120   3.668   1.670
  583SOL    HW2 1769   0.044   3.719   1.535
  584SOL     OW 1770   0.865   2.210   0.195
  584SOL    HW1 1771   0.924   2.273   0.146
  584SOL    HW2 1772   0.884   2.116   0.166
  585SOL     OW 1773   1.719   2.447   1.831
  585SOL    HW1 1774   1.693   2.536   1.795
  585SOL    HW2 1775   1.717   2.379   1.758
  586SOL     OW 1776   1.362   3.006   0.545
  586SOL    HW1 1777   1.445   2.977   0.497
  586SOL    HW2 1778   1.313   3.073   0.489
  587SOL     OW 1779   0.550   2.058   0.885
  587SOL    HW1 1780   0.545   2.053   0.985
  587SOL    HW2 1781   0.552   2.154   0.856
  588SOL     OW 1782   1.008   3.318   0.477
  588SOL    HW1 1783   0.962   3.390   0.425
  588SOL    HW2 1784   1.004   3.338   0.575
  589SOL     OW 1785   0.351   3.663   0.853
  589SOL    HW1 1786   0.401   3.577   0.859
  589SOL    HW2 1787   0.416   3.740   0.850
  590SOL     OW 1788   1.795   2.928   0.873
  590SOL    HW1 1789   1.733   2.913   0.797
  590SOL    HW2 1790   1.743   2.939   0.958
  591SOL     OW 1791   1.227   3.412   1.506
  591SOL    HW1 1792   1.233   3.335   1.570
  591SOL    HW2 1793   1.175   3.386   1.426
  592SOL     OW 1794   0.321   2.805   0.242
  592SOL    HW1 1795   0.403   2.844   0.200
  592SOL    HW2 1796   0.294   2.723   0.193
  593SOL     OW 1797   1.458   2.597   0.728
  593SOL    HW1 1798   1.453   2.532   0.803
  593SOL    HW2 1799   1.538   2.656   0.741
  594SOL     OW 1800   0.461   3.128   1.727
  594SOL    HW1 1801   0.411   3.129   1.641
  594SOL    HW2 1802   0.398   3.110   1.803
  595SOL     OW 1803   1.111   3.638   0.237
  595SOL    HW1 1804   1.051   3.576   0.287
  595SOL    HW2 1805   1.142   3.594   0.152
  596SOL     OW 1806   0.202   2.147   1.498
  596SOL    HW1 1807   0.122   2.207   1.485
  596SOL    HW2 1808   0.192   2.098   1.584
  597SOL     OW 1809   1.632   3.239   0.081
  597SOL    HW1 1810   1.600   3.333   0.071
  597SOL    HW2 1811   1.556   3.176   0.069
  598SOL     OW 1812   0.464   3.605   0.323
  598SOL    HW1 1813   0.497   3.644   0.409
  598SOL    HW2 1814   0.540   3.598   0.258
  599SOL     OW 1815   1.400   1.969   0.426
  599SOL    HW1 1816   1.376   1.932   0.336
  599SOL    HW2 1817   1.499   1.985   0.430
  600SOL     OW 1818   0.249   3.647   1.241
  600SOL    HW1 1819   0.306   3.582   1.291
  600SOL    HW2 1820   0.233   3.614   1.148
  601SOL     OW 1821   0.940   3.560   0.904
  601SOL    HW1 1822   1.020   3.503   0.925
  601SOL    HW2 1823   0.891   3.520   0.827
  602SOL     OW 1824   0.382   2.562   0.480
  602SOL    HW1 1825   0.427   2.472   0.477
  602SOL    HW2 1826   0.288   2.551   0.513
  603SOL     OW 1827   1.547   2.084   1.729
  603SOL    HW1 1828   1.542   2.121   1.821
  603SOL    HW2 1829   1.475   2.015   1.717
  604SOL     OW 1830   0.614   1.984   0.117
  604SOL    HW1 1831   0.712   1.962   0.124
  604SOL    HW2 1832   0.583   1.967   0.024
  605SOL     OW 1833   0.781   2.126   1.749
  605SOL    HW1 1834   0.848   2.065   1.792
  605SOL    HW2 1835   0.708   2.145   1.814
  606SOL     OW 1836   0.888   3.376   1.195
  606SOL    HW1 1837   0.865   3.351   1.101
  606SOL    HW2 1838   0.949   3.307   1.234
  607SOL     OW 1839   1.351   2.452   1.433
  607SOL    HW1 1840   1.379   2.409   1.518
  607SOL    HW2 1841   1.376   2.548   1.434
  608SOL     OW 1842   0.803   3.264   0.924
  608SOL    HW1 1843   0.893   3.278   0.882
  608SOL    HW2 1844   0.732   3.266   0.853
  609SOL     OW 1845   0.922   2.365   0.899
  609SOL    HW1 1846   0.897   2.356   0.803
  609SOL    HW2 1847   0.970   2.283   0.930
  610SOL     OW 1848   0.539   1.926   0.512
  610SOL    HW1 1849   0.458   1.927   0.570
  610SOL    HW2 1850   0.542   2.009   0.457
  611SOL     OW 1851   1.434   3.050   0.041
  611SOL    HW1 1852   1.466   2.974   0.098
  611SOL    HW2 1853   1.342   3.077   0.071
  612SOL     OW 1854   0.297   1.897   0.171
  612SOL    HW1 1855   0.346   1.981   0.150
  612SOL    HW2 1856   0.359   1.832   0.216
  613SOL     OW 1857   0.935   2.098   0.480
  613SOL    HW1 1858   0.887   2.139   0.402
  613SOL    HW2 1859   1.034   2.096   0.461
  614SOL     OW 1860   1.076   2.545   1.464
  614SOL    HW1 1861   0.996   2.484   1.467
  614SOL    HW2 1862   1.157   2.492   1.440
  615SOL     OW 1863   1.227   3.432   0.793
  615SOL    HW1 1864   1.248   3.506   0.728
  615SOL    HW2 1865   1.295   3.432   0.866
  616SOL     OW 1866   0.459   3.014   0.741
  616SOL    HW1 1867   0.388   2.987   0.806
  616SOL    HW2 1868   0.433   2.986   0.648
  617SOL     OW 1869   1.271   3.659   0.591
  617SOL    HW1 1870   1.315   3.723   0.527
  617SOL    HW2 1871   1.221   3.711   0.661
  618SOL     OW 1872   1.032   2.411   0.016
  618SOL    HW1 1873   0.991   2.493  -0.023
  618SOL    HW2 1874   1.096   2.437   0.089
  619SOL     OW 1875   0.078   2.418   1.386
  619SOL    HW1 1876   0.170   2.417   1.345
  619SOL    HW2 1877   0.072   2.492   1.453
  620SOL     OW 1878   0.561   2.084   1.147
  620SOL    HW1 1879   0.599   2.000   1.184
  620SOL    HW2 1880   0.473   2.103   1.191
  621SOL     OW 1881   0.866   2.316   0.642
  621SOL    HW1 1882   0.834   2.388   0.580
  621SOL    HW2 1883   0.890   2.235   0.589
  622SOL     OW 1884   1.017   1.901   0.753
  622SOL    HW1 1885   0.945   1.906   0.684
  622SOL    HW2 1886   0.993   1.832   0.822
  623SOL     OW 1887   1.429   3.035   0.867
  623SOL    HW1 1888   1.374   2.951   0.860
  623SOL    HW2 1889   1.455   3.064   0.775
  624SOL     OW 1890   1.466   2.452   0.992
  624SOL    HW1 1891   1.436   2.357   0.999
  624SOL    HW2 1892   1.539   2.468   1.058
  625SOL     OW 1893   1.857   2.695   0.377
  625SOL    HW1 1894   1.899   2.631   0.441
  625SOL    HW2 1895   1.819   2.644   0.299
  626SOL     OW 1896   0.488   3.247   0.174
  626SOL    HW1 1897   0.401   3.232   0.221
  626SOL    HW2 1898   0.471   3.273   0.079
  627SOL     OW 1899   1.664   3.142   0.657
  627SOL    HW1 1900   1.763   3.150   0.671
  627SOL    HW2 1901   1.619   3.226   0.688
  628SOL     OW 1902   1.390   2.437   0.078
  628SOL    HW1 1903   1.336   2.416   0.159
  628SOL    HW2 1904   1.481   2.396   0.087
  629SOL     OW 1905   0.527   2.118   0.328
  629SOL    HW1 1906   0.554   2.059   0.253
  629SOL    HW2 1907   0.527   2.213   0.297
  630SOL     OW 1908   1.754   3.085   1.588
  630SOL    HW1 1909   1.845   3.046   1.575
  630SOL    HW2 1910   1.762   3.181   1.612
  631SOL     OW 1911   1.064   3.209   1.340
  631SOL    HW1 1912   0.984   3.186   1.395
  631SOL    HW2 1913   1.147   3.183   1.389
  632SOL     OW 1914   1.592   3.491   1.625
  632SOL    HW1 1915   1.619   3.525   1.535
  632SOL    HW2 1916   1.671   3.453   1.671
  633SOL     OW 1917   1.111   3.057   1.100
  633SOL    HW1 1918   1.071   3.101   1.181
  633SOL    HW2 1919   1.070   3.094   1.017
  634SOL     OW 1920   1.638   2.961   1.079
  634SOL    HW1 1921   1.643   3.042   1.138
  634SOL    HW2 1922   1.552   2.963   1.028
  635SOL     OW 1923   0.915   1.951   1.402
  635SOL    HW1 1924   0.940   1.931   1.307
  635SOL    HW2 1925   0.987   2.007   1.444
  636SOL     OW 1926   0.980   2.978   1.719
  636SOL    HW1 1927   0.881   2.984   1.729
  636SOL    HW2 1928   1.003   2.898   1.663
  637SOL     OW 1929   0.705   2.912   0.368
  637SOL    HW1 1930   0.691   2.919   0.467
  637SOL    HW2 1931   0.789   2.861   0.350
  638SOL     OW 1932   0.410   2.675   1.251
  638SOL    HW1 1933   0.496   2.687   1.301
  638SOL    HW2 1934   0.368   2.588   1.278
  639SOL     OW 1935   1.274   2.248   1.262
  639SOL    HW1 1936   1.295   2.322   1.326
  639SOL    HW2 1937   1.185   2.265   1.219
  640SOL     OW 1938   0.064   3.426   1.331
  640SOL    HW1 1939   0.018   3.508   1.297
  640SOL    HW2 1940   0.162   3.445   1.340
  641SOL     OW 1941   0.367   2.962   0.501
  641SOL    HW1 1942   0.360   3.045   0.445
  641SOL    HW2 1943   0.371   2.882   0.441
  642SOL     OW 1944   0.566   2.399   0.865
  642SOL    HW1 1945   0.578   2.465   0.791
  642SOL    HW2 1946   0.612   2.433   0.948
  643SOL     OW 1947   1.252   3.210   0.388
  643SOL    HW1 1948   1.302   3.287   0.428
  643SOL    HW2 1949   1.157   3.212   0.420
  644SOL     OW 1950   1.272   3.307   1.142
  644SOL    HW1 1951   1.319   3.320   1.229
  644SOL    HW2 1952   1.206   3.233   1.151
  645SOL     OW 1953   1.582   2.501   0.472
  645SOL    HW1 1954   1.551   2.562   0.545
  645SOL    HW2 1955   1.632   2.553   0.403
  646SOL     OW 1956   0.354   3.372   1.329
  646SOL    HW1 1957   0.333   3.328   1.242
  646SOL    HW2 1958   0.451   3.398   1.332
  647SOL     OW 1959   0.402   2.613   1.598
  647SOL    HW1 1960   0.470   2.668   1.551
  647SOL    HW2 1961   0.442   2.525   1.625
  648SOL     OW 1962   1.587   2.641   1.670
  648SOL    HW1 1963   1.495   2.679   1.665
  648SOL    HW2 1964   1.647   2.688   1.605
  649SOL     OW 1965   1.013   1.967   1.770
  649SOL    HW1 1966   1.019   2.052   1.718
  649SOL    HW2 1967   1.045   1.891   1.713
  650SOL     OW 1968   0.504   1.912   1.740
  650SOL    HW1 1969   0.462   1.855   1.670
  650SOL    HW2 1970   0.438   1.981   1.772
  651SOL     OW 1971   0.573   2.732   1.029
  651SOL    HW1 1972   0.617   2.821   1.020
  651SOL    HW2 1973   0.510   2.732   1.106
  652SOL     OW 1974   1.360   2.724   1.045
  652SOL    HW1 1975   1.285   2.724   0.979
  652SOL    HW2 1976   1.397   2.632   1.054
  653SOL     OW 1977   1.209   2.387   0.275
  653SOL    HW1 1978   1.222   2.303   0.329
  653SOL    HW2 1979   1.180   2.461   0.335
  654SOL     OW 1980   0.307   2.075   1.231
  654SOL    HW1 1981   0.284   2.112   1.321
  654SOL    HW2 1982   0.277   1.980   1.225
  655SOL     OW 1983   0.037   3.172   1.282
  655SOL    HW1 1984   0.090   3.123   1.350
  655SOL    HW2 1985   0.059   3.270   1.287
  656SOL     OW 1986   0.732   2.496   1.064
  656SOL    HW1 1987   0.791   2.470   0.988
  656SOL    HW2 1988   0.704   2.592   1.053
  657SOL     OW 1989   1.728   2.797   1.854
  657SOL    HW1 1990   1.682   2.790   1.765
  657SOL    HW2 1991   1.666   2.841   1.920
  658SOL     OW 1992   0.307   1.925   0.618
  658SOL    HW1 1993   0.296   2.019   0.651
  658SOL    HW2 1994   0.302   1.862   0.695
  659SOL     OW 1995   1.622   2.229   0.374
  659SOL    HW1 1996   1.624   2.153   0.438
  659SOL    HW2 1997   1.574   2.306   0.414
  660SOL     OW 1998   1.023   2.628   0.966
  660SOL    HW1 1999   1.038   2.649   1.062
  660SOL    HW2 2000   0.993   2.533   0.957
  661SOL     OW 2001   0.980   3.435   1.700
  661SOL    HW1 2002   0.960   3.479   1.612
  661SOL    HW2 2003   1.019   3.344   1.684
  662SOL     OW 2004   1.859   3.380   1.605
  662SOL    HW1 2005   1.873   3.407   1.510
  662SOL    HW2 2006   1.942   3.402   1.658
  663SOL     OW 2007   0.350   2.760   1.804
  663SOL    HW1 2008   0.426   2.804   1.852
  663SOL    HW2 2009   0.385   2.713   1.722
  664SOL     OW 2010   1.540   2.136   0.125
  664SOL    HW1 2011   1.479   2.061   0.148
  664SOL    HW2 2012   1.562   2.188   0.208
  665SOL     OW 2013   1.303   2.700   0.042
  665SOL    HW1 2014   1.337   2.607   0.057
  665SOL    HW2 2015   1.321   2.727  -0.053
  666SOL     OW 2016   1.068   3.195   0.849
  666SOL    HW1 2017   1.075   3.111   0.794
  666SOL    HW2 2018   1.130   3.264   0.813
  667SOL     OW 2019   0.319   2.672   0.949
  667SOL    HW1 2020   0.412   2.708   0.954
  667SOL    HW2 2021   0.313   2.587   1.001
  668SOL     OW 2022   0.339   2.371   1.006
  668SOL    HW1 2023   0.287   2.288   0.989
  668SOL    HW2 2024   0.416   2.376   0.942
  669SOL     OW 2025   1.138   2.242   1.678
  669SOL    HW1 2026   1.093   2.305   1.742
  669SOL    HW2 2027   1.231   2.273   1.661
  670SOL     OW 2028   1.160   2.069   1.477
  670SOL    HW1 2029   1.160   2.133   1.554
  670SOL    HW2 2030   1.188   2.117   1.394
  671SOL     OW 2031   0.008   3.188   0.200
  671SOL    HW1 2032  -0.085   3.209   0.169
  671SOL    HW2 2033   0.018   3.089   0.213
  672SOL     OW 2034   0.088   3.663   0.927
  672SOL    HW1 2035   0.046   3.577   0.900
  672SOL    HW2 2036   0.182   3.666   0.893
  673SOL     OW 2037   0.504   3.430   0.910
  673SOL    HW1 2038   0.570   3.504   0.919
  673SOL    HW2 2039   0.548   3.351   0.868
  674SOL     OW 2040   1.002   2.658   1.238
  674SOL    HW1 2041   1.043   2.626   1.324
  674SOL    HW2 2042   0.906   2.631   1.235
  675SOL     OW 2043   0.040   2.406   1.114
  675SOL    HW1 2044   0.125   2.373   1.073
  675SOL    HW2 2045   0.053   2.421   1.212
  676SOL     OW 2046   0.189   2.382   1.722
  676SOL    HW1 2047   0.248   2.342   1.652
  676SOL    HW2 2048   0.131   2.453   1.681
  677SOL     OW 2049   1.369   2.812   1.660
  677SOL    HW1 2050   1.408   2.901   1.680
  677SOL    HW2 2051   1.379   2.792   1.563
  678SOL     OW 2052   0.815   2.434   0.325
  678SOL    HW1 2053   0.822   2.345   0.279
  678SOL    HW2 2054   0.721   2.468   0.317
  679SOL     OW 2055   1.657   2.466   1.206
  679SOL    HW1 2056   1.619   2.397   1.268
  679SOL    HW2 2057   1.739   2.430   1.162
  680SOL     OW 2058   0.252   3.426   1.744
  680SOL    HW1 2059   0.222   3.483   1.820
  680SOL    HW2 2060   0.245   3.329   1.770
  681SOL     OW 2061   0.671   2.326   1.269
  681SOL    HW1 2062   0.637   2.237   1.239
  681SOL    HW2 2063   0.697   2.380   1.189
  682SOL     OW 2064   0.930   3.540   1.465
  682SOL    HW1 2065   0.906   3.522   1.370
  682SOL    HW2 2066   0.960   3.634   1.475
  683SOL     OW 2067   0.473   2.362   0.191
  683SOL    HW1 2068   0.534   2.442   0.195
  683SOL    HW2 2069   0.378   2.393   0.198
  684SOL     OW 2070   0.159   2.999   1.466
  684SOL    HW1 2071   0.181   2.938   1.542
  684SOL    HW2 2072   0.169   2.950   1.380
  685SOL     OW 2073   1.347   2.921   1.234
  685SOL    HW1 2074   1.371   2.858   1.160
  685SOL    HW2 2075   1.257   2.961   1.216
  686SOL     OW 2076   1.302   2.717   0.309
  686SOL    HW1 2077   1.216   2.686   0.351
  686SOL    HW2 2078   1.298   2.703   0.210
  687SOL     OW 2079   1.759   3.609   1.154
  687SOL    HW1 2080   1.820   3.639   1.081
  687SOL    HW2 2081   1.721   3.520   1.132
  688SOL     OW 2082   1.252   3.593   1.128
  688SOL    HW1 2083   1.336   3.598   1.074
  688SOL    HW2 2084   1.229   3.497   1.146
  689SOL     OW 2085   0.083   3.120   1.022
  689SOL    HW1 2086   0.078   3.119   1.122
  689SOL    HW2 2087   0.000   3.079   0.984
  690SOL     OW 2088   0.688   3.524   1.716
  690SOL    HW1 2089   0.632   3.605   1.725
  690SOL    HW2 2090   0.740   3.528   1.630
  691SOL     OW 2091   0.903   1.948   0.133
  691SOL    HW1 2092   0.954   1.949   0.047
  691SOL    HW2 2093   0.959   1.906   0.204
  692SOL     OW 2094   1.726   1.997   0.523
  692SOL    HW1 2095   1.799   1.980   0.456
  692SOL    HW2 2096   1.695   1.910   0.561
  693SOL     OW 2097   1.388   3.435   0.477
  693SOL    HW1 2098   1.455   3.447   0.403
  693SOL    HW2 2099   1.348   3.524   0.500
  694SOL     OW 2100   0.130   3.656   1.851
  694SOL    HW1 2101   0.089   3.582   1.904
  694SOL    HW2 2102   0.194   3.707   1.909
  695SOL     OW 2103   1.280   2.789   0.672
  695SOL    HW1 2104   1.340   2.708   0.674
  695SOL    HW2 2105   1.320   2.858   0.612
  696SOL     OW 2106   0.830   3.135   1.422
  696SOL    HW1 2107   0.825   3.168   1.517
  696SOL    HW2 2108   0.744   3.154   1.376
  697SOL     OW 2109   0.672   3.478   0.154
  697SOL    HW1 2110   0.681   3.488   0.055
  697SOL    HW2 2111   0.632   3.389   0.175
  698SOL     OW 2112   1.650   3.582   1.394
  698SOL    HW1 2113   1.703   3.592   1.310
  698SOL    HW2 2114   1.623   3.672   1.428
  699SOL     OW 2115   1.841   2.037   0.963
  699SOL    HW1 2116   1.880   1.952   0.927
  699SOL    HW2 2117   1.743   2.039   0.944
  700SOL     OW 2118   0.263   2.188   0.720
  700SOL    HW1 2119   0.184   2.239   0.686
  700SOL    HW2 2120   0.254   2.173   0.818
  701SOL     OW 2121   1.194   3.474   0.031
  701SOL    HW1 2122   1.200   3.381   0.068
  701SOL    HW2 2123   1.135   3.474  -0.049
  702SOL     OW 2124   0.822   2.864   1.372
  702SOL    HW1 2125   0.862   2.863   1.280
  702SOL    HW2 2126   0.832   2.956   1.412
  703SOL     OW 2127   0.916   2.772   0.291
  703SOL    HW1 2128   0.979   2.810   0.223
  703SOL    HW2 2129   0.956   2.689   0.330
  704SOL     OW 2130   1.504   3.469   0.044
  704SOL    HW1 2131   1.412   3.506   0.051
  704SOL    HW2 2132   1.542   3.489  -0.046
  705SOL     OW 2133   0.372   3.150   1.490
  705SOL    HW1 2134   0.359   3.243   1.456
  705SOL    HW2 2135   0.288   3.098   1.477
  706SOL     OW 2136   1.614   3.154   1.289
  706SOL    HW1 2137   1.674   3.157   1.369
  706SOL    HW2 2138   1.539   3.218   1.302
  707SOL     OW 2139   1.039   2.960   0.696
  707SOL    HW1 2140   0.969   2.913   0.750
  707SOL    HW2 2141   1.098   2.892   0.653
  708SOL     OW 2142   1.014   2.098   0.971
  708SOL    HW1 2143   1.006   2.062   0.878
  708SOL    HW2 2144   1.012   2.022   1.036
  709SOL     OW 2145   0.590   3.349   0.491
  709SOL    HW1 2146   0.632   3.291   0.421
  709SOL    HW2 2147   0.546   3.428   0.447
  710SOL     OW 2148   1.709   2.247   1.381
  710SOL    HW1 2149   1.782   2.316   1.385
  710SOL    HW2 2150   1.737   2.172   1.322
  711SOL     OW 2151   0.255   3.210   0.290
  711SOL    HW1 2152   0.159   3.211   0.263
  711SOL    HW2 2153   0.267   3.263   0.374
  712SOL     OW 2154   0.105   2.875   1.726
  712SOL    HW1 2155   0.028   2.842   1.780
  712SOL    HW2 2156   0.190   2.845   1.768
  713SOL     OW 2157   0.672   2.065   1.489
  713SOL    HW1 2158   0.762   2.049   1.449
  713SOL    HW2 2159   0.680   2.070   1.588
  714SOL     OW 2160   0.075   2.207   0.033
  714SOL    HW1 2161  -0.017   2.179   0.004
  714SOL    HW2 2162   0.106   2.284  -0.023
  715SOL     OW 2163   1.440   2.718   1.398
  715SOL    HW1 2164   1.383   2.770   1.335
  715SOL    HW2 2165   1.536   2.730   1.374
  716SOL     OW 2166   0.072   2.028   0.318
  716SOL    HW1 2167   0.055   2.111   0.264
  716SOL    HW2 2168   0.162   1.991   0.296
  717SOL     OW 2169   1.183   3.197   0.119
  717SOL    HW1 2170   1.084   3.186   0.121
  717SOL    HW2 2171   1.217   3.212   0.212
  718SOL     OW 2172   0.613   2.704   1.431
  718SOL    HW1 2173   0.669   2.785   1.414
  718SOL    HW2 2174   0.672   2.624   1.434
  719SOL     OW 2175   1.493   3.629   0.959
  719SOL    HW1 2176   1.526   3.693   0.890
  719SOL    HW2 2177   1.559   3.623   1.034
  720SOL     OW 2178   0.716   2.427   1.708
  720SOL    HW1 2179   0.735   2.492   1.782
  720SOL    HW2 2180   0.776   2.347   1.717
  721SOL     OW 2181   1.450   3.082   1.633
  721SOL    HW1 2182   1.441   3.072   1.732
  721SOL    HW2 2183   1.546   3.075   1.607
  722SOL     OW 2184   0.390   3.603   1.560
  722SOL    HW1 2185   0.299   3.644   1.558
  722SOL    HW2 2186   0.383   3.509   1.592
  723SOL     OW 2187   1.674   2.745   1.254
  723SOL    HW1 2188   1.647   2.656   1.217
  723SOL    HW2 2189   1.675   2.813   1.181
  724SOL     OW 2190   1.225   2.187   0.449
  724SOL    HW1 2191   1.290   2.113   0.438
  724SOL    HW2 2192   1.245   2.237   0.533
  725SOL     OW 2193   0.594   2.607   0.652
  725SOL    HW1 2194   0.644   2.692   0.633
  725SOL    HW2 2195   0.506   2.609   0.604
  726SOL     OW 2196   1.777   2.204   1.642
  726SOL    HW1 2197   1.760   2.235   1.548
  726SOL    HW2 2198   1.693   2.167   1.680
  727SOL     OW 2199   1.730   2.796   1.517
  727SOL    HW1 2200   1.768   2.887   1.532
  727SOL    HW2 2201   1.722   2.779   1.418
  728SOL     OW 2202   0.859   3.236   0.016
  728SOL    HW1 2203   0.813   3.251   0.104
  728SOL    HW2 2204   0.903   3.321  -0.014
  729SOL     OW 2205   0.661   3.652   0.953
  729SOL    HW1 2206   0.615   3.740   0.940
  729SOL    HW2 2207   0.760   3.664   0.946
  730SOL     OW 2208   0.859   2.818   0.861
  730SOL    HW1 2209   0.913   2.749   0.909
  730SOL    HW2 2210   0.827   2.887   0.927
  731SOL     OW 2211   1.083   2.846   0.087
  731SOL    HW1 2212   1.060   2.899   0.005
  731SOL    HW2 2213   1.164   2.790   0.068
  732SOL     OW 2214   1.861   3.431   0.851
  732SOL    HW1 2215   1.790   3.419   0.781
  732SOL    HW2 2216   1.862   3.352   0.911
  733SOL     OW 2217   0.221   3.176   1.844
  733SOL    HW1 2218   0.156   3.103   1.823
  733SOL    HW2 2219   0.225   3.190   1.942
  734SOL     OW 2220   0.079   3.102   0.653
  734SOL    HW1 2221   0.078   3.055   0.741
  734SOL    HW2 2222   0.161   3.074   0.602
  735SOL     OW 2223   0.672   3.253   1.624
  735SOL    HW1 2224   0.594   3.203   1.662
  735SOL    HW2 2225   0.669   3.348   1.655
  736SOL     OW 2226   1.824   2.054   1.227
  736SOL    HW1 2227   1.820   1.964   1.271
  736SOL    HW2 2228   1.827   2.043   1.128
  737SOL     OW 2229   0.428   2.286   0.520
  737SOL    HW1 2230   0.458   2.214   0.458
  737SOL    HW2 2231   0.389   2.246   0.603
  738SOL     OW 2232   1.705   3.349   1.104
  738SOL    HW1 2233   1.612   3.324   1.077
  738SOL    HW2 2234   1.731   3.299   1.186
  739SOL     OW 2235   0.317   2.409   1.280
  739SOL    HW1 2236   0.355   2.350   1.352
  739SOL    HW2 2237   0.357   2.383   1.192
  740SOL     OW 2238   0.812   3.448   0.687
  740SOL    HW1 2239   0.844   3.458   0.593
  740SOL    HW2 2240   0.733   3.386   0.689
  741SOL     OW 2241   1.424   2.076   1.112
  741SOL    HW1 2242   1.476   2.011   1.167
  741SOL    HW2 2243   1.375   2.139   1.173
  742SOL     OW 2244   1.001   1.896   1.154
  742SOL    HW1 2245   0.938   1.824   1.123
  742SOL    HW2 2246   1.094   1.860   1.154
  743SOL     OW 2247   0.770   3.192   0.301
  743SOL    HW1 2248   0.724   3.105   0.318
  743SOL    HW2 2249   0.861   3.189   0.342
  744SOL     OW 2250   0.618   3.429   1.284
  744SOL    HW1 2251   0.613   3.511   1.341
  744SOL    HW2 2252   0.707   3.426   1.239
  745SOL     OW 2253   1.352   1.914   0.168
  745SOL    HW1 2254   1.387   1.873   0.084
  745SOL    HW2 2255   1.262   1.876   0.188
  746SOL     OW 2256   1.300   2.315   0.691
  746SOL    HW1 2257   1.241   2.395   0.695
  746SOL    HW2 2258   1.315   2.280   0.784
  747SOL     OW 2259   1.593   2.083   0.882
  747SOL    HW1 2260   1.509   2.082   0.936
  747SOL    HW2 2261   1.595   2.166   0.826
  748SOL     OW 2262   0.039   2.939   0.300
  748SOL    HW1 2263   0.138   2.928   0.291
  748SOL    HW2 2264  -0.001   2.853   0.332
  749SOL     OW 2265   0.875   3.508   0.337
  749SOL    HW1 2266   0.798   3.473   0.283
  749SOL    HW2 2267   0.843   3.579   0.399
  750SOL     OW 2268   0.230   2.490   1.975
  750SOL    HW1 2269   0.137   2.488   2.012
  750SOL    HW2 2270   0.231   2.451   1.883
  751SOL     OW 2271   0.225   2.137   2.858
  751SOL    HW1 2272   0.260   2.120   2.950
  751SOL    HW2 2273   0.137   2.092   2.846
  752SOL     OW 2274   0.019   2.230   2.509
  752SOL    HW1 2275  -0.063   2.273   2.548
  752SOL    HW2 2276  -0.009   2.157   2.446
  753SOL     OW 2277   0.569   3.137   3.027
  753SOL    HW1 2278   0.476   3.130   2.990
  753SOL    HW2 2279   0.580   3.226   3.071
  754SOL     OW 2280   1.555   3.373   2.565
  754SOL    HW1 2281   1.498   3.357   2.646
  754SOL    HW2 2282   1.496   3.383   2.485
  755SOL     OW 2283   1.135   2.565   2.579
  755SOL    HW1 2284   1.192   2.643   2.554
  755SOL    HW2 2285   1.075   2.591   2.655
  756SOL     OW 2286   1.755   2.469   2.093
  756SOL    HW1 2287   1.743   2.456   1.994
  756SOL    HW2 2288   1.725   2.388   2.142
  757SOL     OW 2289   0.768   3.006   2.885
  757SOL    HW1 2290   0.690   3.023   2.945
  757SOL    HW2 2291   0.802   3.093   2.849
  758SOL     OW 2292   0.850   2.660   3.685
  758SOL    HW1 2293   0.846   2.736   3.750
  758SOL    HW2 2294   0.872   2.696   3.594
  759SOL     OW 2295   0.685   2.874   2.527
  759SOL    HW1 2296   0.754   2.858   2.597
  759SOL    HW2 2297   0.612   2.931   2.565
  760SOL     OW 2298   0.686   3.023   3.665
  760SOL    HW1 2299   0.746   3.102   3.679
  760SOL    HW2 2300   0.600   3.054   3.624
  761SOL     OW 2301   0.335   3.297   2.923
  761SOL    HW1 2302   0.257   3.266   2.870
  761SOL    HW2 2303   0.393   3.355   2.866
  762SOL     OW 2304   1.460   3.367   3.201
  762SOL    HW1 2305   1.484   3.461   3.227
  762SOL    HW2 2306   1.444   3.313   3.283
  763SOL     OW 2307   0.438   2.254   3.361
  763SOL    HW1 2308   0.520   2.198   3.370
  763SOL    HW2 2309   0.357   2.196   3.365
  764SOL     OW 2310   1.603   2.309   2.599
  764SOL    HW1 2311   1.529   2.355   2.549
  764SOL    HW2 2312   1.654   2.377   2.652
  765SOL     OW 2313   0.231   3.575   2.345
  765SOL    HW1 2314   0.265   3.652   2.399
  765SOL    HW2 2315   0.275   3.575   2.255
  766SOL     OW 2316   1.127   3.203   3.552
  766SOL    HW1 2317   1.174   3.203   3.640
  766SOL    HW2 2318   1.079   3.116   3.541
  767SOL     OW 2319   0.230   3.296   2.400
  767SOL    HW1 2320   0.204   3.392   2.400
  767SOL    HW2 2321   0.159   3.242   2.445
  768SOL     OW 2322   0.240   2.953   2.748
  768SOL    HW1 2323   0.254   2.869   2.800
  768SOL    HW2 2324   0.185   3.017   2.803
  769SOL     OW 2325   0.620   3.648   3.301
  769SOL    HW1 2326   0.528   3.631   3.336
  769SOL    HW2 2327   0.648   3.740   3.327
  770SOL     OW 2328   0.606   2.826   1.985
  770SOL    HW1 2329   0.613   2.910   1.931
  770SOL    HW2 2330   0.652   2.839   2.073
  771SOL     OW 2331   1.594   1.976   3.342
  771SOL    HW1 2332   1.576   2.043   3.270
  771SOL    HW2 2333   1.591   2.022   3.431
  772SOL     OW 2334   0.122   2.505   2.425
  772SOL    HW1 2335   0.077   2.417   2.442
  772SOL    HW2 2336   0.121   2.559   2.509
  773SOL     OW 2337   1.842   3.629   2.221
  773SOL    HW1 2338   1.896   3.600   2.301
  773SOL    HW2 2339   1.872   3.719   2.192
  774SOL     OW 2340   0.027   3.458   1.979
  774SOL    HW1 2341   0.008   3.362   2.000
  774SOL    HW2 2342  -0.006   3.516   2.054
  775SOL     OW 2343   1.689   2.784   2.474
  775SOL    HW1 2344   1.784   2.755   2.482
  775SOL    HW2 2345   1.681   2.849   2.399
  776SOL     OW 2346   1.641   2.970   2.294
  776SOL    HW1 2347   1.727   2.972   2.242
  776SOL    HW2 2348   1.655   3.017   2.382
  777SOL     OW 2349   0.113   2.599   3.459
  777SOL    HW1 2350   0.201   2.586   3.504
  777SOL    HW2 2351   0.100   2.696   3.437
  778SOL     OW 2352   0.613   3.227   2.588
  778SOL    HW1 2353   0.564   3.140   2.597
  778SOL    HW2 2354   0.590   3.270   2.501
  779SOL     OW 2355   1.293   3.090   3.285
  779SOL    HW1 2356   1.330   3.017   3.227
  779SOL    HW2 2357   1.345   3.095   3.370
  780SOL     OW 2358   0.809   1.866   2.364
  780SOL    HW1 2359   0.849   1.957   2.355
  780SOL    HW2 2360   0.709   1.874   2.370
  781SOL     OW 2361   0.197   2.838   3.126
  781SOL    HW1 2362   0.286   2.793   3.112
  781SOL    HW2 2363   0.124   2.773   3.107
  782SOL     OW 2364   1.525   2.861   2.052
  782SOL    HW1 2365   1.462   2.785   2.065
  782SOL    HW2 2366   1.573   2.879   2.138
  783SOL     OW 2367   1.187   3.654   3.478
  783SOL    HW1 2368   1.211   3.714   3.402
  783SOL    HW2 2369   1.194   3.559   3.448
  784SOL     OW 2370   0.317   2.113   3.663
  784SOL    HW1 2371   0.388   2.184   3.669
  784SOL    HW2 2372   0.229   2.152   3.691
  785SOL     OW 2373   1.466   3.279   2.815
  785SOL    HW1 2374   1.407   3.285   2.895
  785SOL    HW2 2375   1.451   3.191   2.769
  786SOL     OW 2376   1.667   3.576   2.434
  786SOL    HW1 2377   1.626   3.553   2.346
  786SOL    HW2 2378   1.649   3.502   2.499
  787SOL     OW 2379   0.598   2.591   2.132
  787SOL    HW1 2380   0.622   2.660   2.064
  787SOL    HW2 2381   0.520   2.624   2.186
  788SOL     OW 2382   1.281   2.207   2.806
  788SOL    HW1 2383   1.195   2.157   2.793
  788SOL    HW2 2384   1.343   2.153   2.862
  789SOL     OW 2385   1.576   3.524   2.169
  789SOL    HW1 2386   1.665   3.570   2.172
  789SOL    HW2 2387   1.555   3.500   2.074
  790SOL     OW 2388   0.807   2.467   3.327
  790SOL    HW1 2389   0.760   2.464   3.416
  790SOL    HW2 2390   0.756   2.412   3.261
  791SOL     OW 2391   1.394   2.331   3.536
  791SOL    HW1 2392   1.374   2.374   3.624
  791SOL    HW2 2393   1.472   2.269   3.545
  792SOL     OW 2394   0.973   2.752   3.434
  792SOL    HW1 2395   1.019   2.668   3.405
  792SOL    HW2 2396   0.917   2.786   3.359
  793SOL     OW 2397   0.991   2.272   3.104
  793SOL    HW1 2398   0.914   2.306   3.158
  793SOL    HW2 2399   0.957   2.221   3.025
  794SOL     OW 2400   1.041   2.563   2.291
  794SOL    HW1 2401   1.067   2.559   2.387
  794SOL    HW2 2402   0.956   2.512   2.277
  795SOL     OW 2403   0.076   2.673   2.651
  795SOL    HW1 2404   0.175   2.661   2.660
  795SOL    HW2 2405   0.052   2.768   2.672
  796SOL     OW 2406   0.130   3.683   3.433
  796SOL    HW1 2407   0.120   3.668   3.532
  796SOL    HW2 2408   0.044   3.719   3.397
  797SOL     OW 2409   0.865   2.210   2.057
  797SOL    HW1 2410   0.924   2.273   2.008
  797SOL    HW2 2411   0.884   2.116   2.028
  798SOL     OW 2412   1.719   2.447   3.693
  798SOL    HW1 2413   1.693   2.536   3.657
  798SOL    HW2 2414   1.717   2.379   3.620
  799SOL     OW 2415   1.362   3.006   2.407
  799SOL    HW1 2416   1.445   2.977   2.359
  799SOL    HW2 2417   1.313   3.073   2.351
  800SOL     OW 2418   0.550   2.058   2.747
  800SOL    HW1 2419   0.545   2.053   2.847
  800SOL    HW2 2420   0.552   2.154   2.718
  801SOL     OW 2421   1.008   3.318   2.339
  801SOL    HW1 2422   0.962   3.390   2.287
  801SOL    HW2 2423   1.004   3.338   2.437
  802SOL     OW 2424   0.351   3.663   2.715
  802SOL    HW1 2425   0.401   3.577   2.721
  802SOL    HW2 2426   0.416   3.740   2.712
  803SOL     OW 2427   1.795   2.928   2.735
  803SOL    HW1 2428   1.733   2.913   2.659
  803SOL    HW2 2429   1.743   2.939   2.820
  804SOL     OW 2430   1.227   3.412   3.368
  804SOL    HW1 2431   1.233   3.335   3.432
  804SOL    HW2 2432   1.175   3.386   3.288
  805SOL     OW 2433   0.321   2.805   2.104
  805SOL    HW1 2434   0.403   2.844   2.062
  805SOL    HW2 2435   0.294   2.723   2.055
  806SOL     OW 2436   1.458   2.597   2.590
  806SOL    HW1 2437   1.453   2.532   2.665
  806SOL    HW2 2438   1.538   2.656   2.603
  807SOL     OW 2439   0.461   3.128   3.589
  807SOL    HW1 2440   0.411   3.129   3.503
  807SOL    HW2 2441   0.398   3.110   3.665
  808SOL     OW 2442   1.111   3.638   2.099
  808SOL    HW1 2443   1.051   3.576   2.149
  808SOL    HW2 2444   1.142   3.594   2.014
  809SOL     OW 2445   0.202   2.147   3.360
  809SOL    HW1 2446   0.122   2.207   3.347
  809SOL    HW2 2447   0.192   2.098   3.446
  810SOL     OW 2448   1.632   3.239   1.943
  810SOL    HW1 2449   1.600   3.333   1.933
  810SOL    HW2 2450   1.556   3.176   1.931
  811SOL     OW 2451   0.464   3.605   2.185
  811SOL    HW1 2452   0.497   3.644   2.271
  811SOL    HW2 2453   0.540   3.598   2.120
  812SOL     OW 2454   1.400   1.969   2.288
  812SOL    HW1 2455   1.376   1.932   2.198
  812SOL    HW2 2456   1.499   1.985   2.292
  813SOL     OW 2457   0.249   3.647   3.103
  813SOL    HW1 2458   0.306   3.582   3.153
  813SOL    HW2 2459   0.233   3.614   3.010
  814SOL     OW 2460   0.940   3.560   2.766
  814SOL    HW1 2461   1.020   3.503   2.787
  814SOL    HW2 2462   0.891   3.520   2.689
  815SOL     OW 2463   0.382   2.562   2.342
  815SOL    HW1 2464   0.427   2.472   2.339
  815SOL    HW2 2465   0.288   2.551   2.375
  816SOL     OW 2466   1.547   2.084   3.591
  816SOL    HW1 2467   1.542   2.121   3.683
  816SOL    HW2 2468   1.475   2.015   3.579
  817SOL     OW 2469   0.614   1.984   1.979
  817SOL    HW1 2470   0.712   1.962   1.986
  817SOL    HW2 2471   0.583   1.967   1.886
  818SOL     OW 2472   0.781   2.126   3.611
  818SOL    HW1 2473   0.848   2.065   3.654
  818SOL    HW2 2474   0.708   2.145   3.676
  819SOL     OW 2475   0.888   3.376   3.057
  819SOL    HW1 2476   0.865   3.351   2.963
  819SOL    HW2 2477   0.949   3.307   3.096
  820SOL     OW 2478   1.351   2.452   3.295
  820SOL    HW1 2479   1.379   2.409   3.380
  820SOL    HW2 2480   1.376   2.548   3.296
  821SOL     OW 2481   0.803   3.264   2.786
  821SOL    HW1 2482   0.893   3.278   2.744
  821SOL    HW2 2483   0.732   3.266   2.715
  822SOL     OW 2484   0.922   2.365   2.761
  822SOL    HW1 2485   0.897   2.356   2.665
  822SOL    HW2 2486   0.970   2.283   2.792
  823SOL     OW 2487   0.539   1.926   2.374
  823SOL    HW1 2488   0.458   1.927   2.432
  823SOL    HW2 2489   0.542   2.009   2.319
  824SOL     OW 2490   1.434   3.050   1.903
  824SOL    HW1 2491   1.466   2.974   1.960
  824SOL    HW2 2492   1.342   3.077   1.933
  825SOL     OW 2493   0.297   1.897   2.033
  825SOL    HW1 2494   0.346   1.981   2.012
  825SOL    HW2 2495   0.359   1.832   2.078
  826SOL     OW 2496   0.935   2.098   2.342
  826SOL    HW1 2497   0.887   2.139   2.264
  826SOL    HW2 2498   1.034   2.096   2.323
  827SOL     OW 2499   1.076   2.545   3.326
  827SOL    HW1 2500   0.996   2.484   3.329
  827SOL    HW2 2501   1.157   2.492   3.302
  828SOL     OW 2502   1.227   3.432   2.655
  828SOL    HW1 2503   1.248   3.506   2.590
  828SOL    HW2 2504   1.295   3.432   2.728
  829SOL     OW 2505   0.459   3.014   2.603
  829SOL    HW1 2506   0.388   2.987   2.668
  829SOL    HW2 2507   0.433   2.986   2.510
  830SOL     OW 2508   1.271   3.659   2.453
  830SOL    HW1 2509   1.315   3.723   2.389
  830SOL    HW2 2510   1.221   3.711   2.523
  831SOL     OW 2511   1.032   2.411   1.878
  831SOL    HW1 2512   0.991   2.493   1.839
  831SOL    HW2 2513   1.096   2.437   1.951
  832SOL     OW 2514   0.078   2.418   3.248
  832SOL    HW1 2515   0.170   2.417   3.207
  832SOL    HW2 2516   0.072   2.492   3.315
  833SOL     OW 2517   0.561   2.084   3.009
  833SOL    HW1 2518   0.599   2.000   3.046
  833SOL    HW2 2519   0.473   2.103   3.053
  834SOL     OW 2520   0.866   2.316   2.504
  834SOL    HW1 2521   0.834   2.388   2.442
  834SOL    HW2 2522   0.890   2.235   2.451
  835SOL     OW 2523   1.017   1.901   2.615
  835SOL    HW1 2524   0.945   1.906   2.546
  835SOL    HW2 2525   0.993   1.832   2.684
  836SOL     OW 2526   1.429   3.035   2.729
  836SOL    HW1 2527   1.374   2.951   2.722
  836SOL    HW2 2528   1.455   3.064   2.637
  837SOL     OW 2529   1.466   2.452   2.854
  837SOL    HW1 2530   1.436   2.357   2.861
  837SOL    HW2 2531   1.539   2.468   2.920
  838SOL     OW 2532   1.857   2.695   2.239
  838SOL    HW1 2533   1.899   2.631   2.303
  838SOL    HW2 2534   1.819   2.644   2.161
  839SOL     OW 2535   0.488   3.247   2.036
  839SOL    HW1 2536   0.401   3.232   2.083
  839SOL    HW2 2537   0.471   3.273   1.941
  840SOL     OW 2538   1.664   3.142   2.519
  840SOL    HW1 2539   1.763   3.150   2.533
  840SOL    HW2 2540   1.619   3.226   2.550
  841SOL     OW 2541   1.390   2.437   1.940
  841SOL    HW1 2542   1.336   2.416   2.021
  841SOL    HW2 2543   1.481   2.396   1.949
  842SOL     OW 2544   0.527   2.118   2.190
  842SOL    HW1 2545   0.554   2.059   2.115
  842SOL    HW2 2546   0.527   2.213   2.159
  843SOL     OW 2547   1.754   3.085   3.450
  843SOL    HW1 2548   1.845   3.046   3.437
  843SOL    HW2 2549   1.762   3.181   3.474
  844SOL     OW 2550   1.064   3.209   3.202
  844SOL    HW1 2551   0.984   3.186   3.257
  844SOL    HW2 2552   1.147   3.183   3.251
  845SOL     OW 2553   1.592   3.491   3.487
  845SOL    HW1 2554   1.619   3.525   3.397
  845SOL    HW2 2555   1.671   3.453   3.533
  846SOL     OW 2556   1.111   3.057   2.962
  846SOL    HW1 2557   1.071   3.101   3.043
  846SOL    HW2 2558   1.070   3.094   2.879
  847SOL     OW 2559   1.638   2.961   2.941
  847SOL    HW1 2560   1.643   3.042   3.000
  847SOL    HW2 2561   1.552   2.963   2.890
  848SOL     OW 2562   0.915   1.951   3.264
  848SOL    HW1 2563   0.940   1.931   3.169
  848SOL    HW2 2564   0.987   2.007   3.306
  849SOL     OW 2565   0.980   2.978   3.581
  849SOL    HW1 2566   0.881   2.984   3.591
  849SOL    HW2 2567   1.003   2.898   3.525
  850SOL     OW 2568   0.705   2.912   2.230
  850SOL    HW1 2569   0.691   2.919   2.329
  850SOL    HW2 2570   0.789   2.861   2.212
  851SOL     OW 2571   0.410   2.675   3.113
  851SOL    HW1 2572   0.496   2.687   3.163
  851SOL    HW2 2573   0.368   2.588   3.140
  852SOL     OW 2574   1.274   2.248   3.124
  852SOL    HW1 2575   1.295   2.322   3.188
  852SOL    HW2 2576   1.185   2.265   3.081
  853SOL     OW 2577   0.064   3.426   3.193
  853SOL    HW1 2578   0.018   3.508   3.159
  853SOL    HW2 2579   0.162   3.445   3.202
  854SOL     OW 2580   0.367   2.962   2.363
  854SOL    HW1 2581   0.360   3.045   2.307
  854SOL    HW2 2582   0.371   2.882   2.303
  855SOL     OW 2583   0.566   2.399   2.727
  855SOL    HW1 2584   0.578   2.465   2.653
  855SOL    HW2 2585   0.612   2.433   2.810
  856SOL     OW 2586   1.252   3.210   2.250
  856SOL    HW1 2587   1.302   3.287   2.290
  856SOL    HW2 2588   1.157   3.212   2.282
  857SOL     OW 2589   1.272   3.307   3.004
  857SOL    HW1 2590   1.319   3.320   3.091
  857SOL    HW2 2591   1.206   3.233   3.013
  858SOL     OW 2592   1.582   2.501   2.334
  858SOL    HW1 2593   1.551   2.562   2.407
  858SOL    HW2 2594   1.632   2.553   2.265
  859SOL     OW 2595   0.354   3.372   3.191
  859SOL    HW1 2596   0.333   3.328   3.104
  859SOL    HW2 2597   0.451   3.398   3.194
  860SOL     OW 2598   0.402   2.613   3.460
  860SOL    HW1 2599   0.470   2.668   3.413
  860SOL    HW2 2600   0.442   2.525   3.487
  861SOL     OW 2601   1.587   2.641   3.532
  861SOL    HW1 2602   1.495   2.679   3.527
  861SOL    HW2 2603   1.647   2.688   3.467
  862SOL     OW 2604   1.013   1.967   3.632
  862SOL    HW1 2605   1.019   2.052   3.580
  862SOL    HW2 2606   1.045   1.891   3.575
  863SOL     OW 2607   0.504   1.912   3.602
  863SOL    HW1 2608   0.462   1.855   3.532
  863SOL    HW2 2609   0.438   1.981   3.634
  864SOL     OW 2610   0.573   2.732   2.891
  864SOL    HW1 2611   0.617   2.821   2.882
  864SOL    HW2 2612   0.510   2.732   2.968
  865SOL     OW 2613   1.360   2.724   2.907
  865SOL    HW1 2614   1.285   2.724   2.841
  865SOL    HW2 2615   1.397   2.632   2.916
  866SOL     OW 2616   1.209   2.387   2.137
  866SOL    HW1 2617   1.222   2.303   2.191
  866SOL    HW2 2618   1.180   2.461   2.197
  867SOL     OW 2619   0.307   2.075   3.093
  867SOL    HW1 2620   0.284   2.112   3.183
  867SOL    HW2 2621   0.277   1.980   3.087
  868SOL     OW 2622   0.037   3.172   3.144
  868SOL    HW1 2623   0.090   3.123   3.212
  868SOL    HW2 2624   0.059   3.270   3.149
  869SOL     OW 2625   0.732   2.496   2.926
  869SOL    HW1 2626   0.791   2.470   2.850
  869SOL    HW2 2627   0.704   2.592   2.915
  870SOL     OW 2628   1.728   2.797   3.716
  870SOL    HW1 2629   1.682   2.790   3.627
  870SOL    HW2 2630   1.666   2.841   3.782
  871SOL     OW 2631   0.307   1.925   2.480
  871SOL    HW1 2632   0.296   2.019   2.513
  871SOL    HW2 2633   0.302   1.862   2.557
  872SOL     OW 2634   1.622   2.229   2.236
  872SOL    HW1 2635   1.624   2.153   2.300
  872SOL    HW2 2636   1.574   2.306   2.276
  873SOL     OW 2637   1.023   2.628   2.828
  873SOL    HW1 2638   1.038   2.649   2.924
  873SOL    HW2 2639   0.993   2.533   2.819
  874SOL     OW 2640   0.980   3.435   3.562
  874SOL    HW1 2641   0.960   3.479   3.474
  874SOL    HW2 2642   1.019   3.344   3.546
  875SOL     OW 2643   1.859   3.380   3.467
  875SOL    HW1 2644   1.873   3.407   3.372
  875SOL    HW2 2645   1.942   3.402   3.520
  876SOL     OW 2646   0.350   2.760   3.666
  876SOL    HW1 2647   0.426   2.804   3.714
  876SOL    HW2 2648   0.385   2.713   3.584
  877SOL     OW 2649   1.540   2.136   1.987
  877SOL    HW1 2650   1.479   2.061   2.010
  877SOL    HW2 2651   1.562   2.188   2.070
  878SOL     OW 2652   1.303   2.700   1.904
  878SOL    HW1 2653   1.337   2.607   1.919
  878SOL    HW2 2654   1.321   2.727   1.809
  879SOL     OW 2655   1.068   3.195   2.711
  879SOL    HW1 2656   1.075   3.111   2.656
  879SOL    HW2 2657   1.130   3.264   2.675
  880SOL     OW 2658   0.319   2.672   2.811
  880SOL    HW1 2659   0.412   2.708   2.816
  880SOL    HW2 2660   0.313   2.587   2.863
  881SOL     OW 2661   0.339   2.371   2.868
  881SOL    HW1 2662   0.287   2.288   2.851
  881SOL    HW2 2663   0.416   2.376   2.804
  882SOL     OW 2664   1.138   2.242   3.540
  882SOL    HW1 2665   1.093   2.305   3.604
  882SOL    HW2 2666   1.231   2.273   3.523
  883SOL     OW 2667   1.160   2.069   3.339
  883SOL    HW1 2668   1.160   2.133   3.416
  883SOL    HW2 2669   1.188   2.117   3.256
  884SOL     OW 2670   0.008   3.188   2.062
  884SOL    HW1 2671  -0.085   3.209   2.031
  884SOL    HW2 2672   0.018   3.089   2.075
  885SOL     OW 2673   0.088   3.663   2.789
  885SOL    HW1 2674   0.046   3.577   2.762
  885SOL    HW2 2675   0.182   3.666   2.755
  886SOL     OW 2676   0.504   3.430   2.772
  886SOL    HW1 2677   0.570   3.504   2.781
  886SOL    HW2 2678   0.548   3.351   2.730
  887SOL     OW 2679   1.002   2.658   3.100
  887SOL    HW1 2680   1.043   2.626   3.186
  887SOL    HW2 2681   0.906   2.631   3.097
  888SOL     OW 2682   0.040   2.406   2.976
  888SOL    HW1 2683   0.125   2.373   2.935
  888SOL    HW2 2684   0.053   2.421   3.074
  889SOL     OW 2685   0.189   2.382   3.584
  889SOL    HW1 2686   0.248   2.342   3.514
  889SOL    HW2 2687   0.131   2.453   3.543
  890SOL     OW 2688   1.369   2.812   3.522
  890SOL    HW1 2689   1.408   2.901   3.542
  890SOL    HW2 2690   1.379   2.792   3.425
  891SOL     OW 2691   0.815   2.434   2.187
  891SOL    HW1 2692   0.822   2.345   2.141
  891SOL    HW2 2693   0.721   2.468   2.179
  892SOL     OW 2694   1.657   2.466   3.068
  892SOL    HW1 2695   1.619   2.397   3.130
  892SOL    HW2 2696   1.739   2.430   3.024
  893SOL     OW 2697   0.252   3.426   3.606
  893SOL    HW1 2698   0.222   3.483   3.682
  893SOL    HW2 2699   0.245   3.329   3.632
  894SOL     OW 2700   0.671   2.326   3.131
  894SOL    HW1 2701   0.637   2.237   3.101
  894SOL    HW2 2702   0.697   2.380   3.051
  895SOL     OW 2703   0.930   3.540   3.327
  895SOL    HW1 2704   0.906   3.522   3.232
  895SOL    HW2 2705   0.960   3.634   3.337
  896SOL     OW 2706   0.473   2.362   2.053
  896SOL    HW1 2707   0.534   2.442   2.057
  896SOL    HW2 2708   0.378   2.393   2.060
  897SOL     OW 2709   0.159   2.999   3.328
  897SOL    HW1 2710   0.181   2.938   3.404
  897SOL    HW2 2711   0.169   2.950   3.242
  898SOL     OW 2712   1.347   2.921   3.096
  898SOL    HW1 2713   1.371   2.858   3.022
  898SOL    HW2 2714   1.257   2.961   3.078
  899SOL     OW 2715   1.302   2.717   2.171
  899SOL    HW1 2716   1.216   2.686   2.213
  899SOL    HW2 2717   1.298   2.703   2.072
  900SOL     OW 2718   1.759   3.609   3.016
  900SOL    HW1 2719   1.820   3.639   2.943
  900SOL    HW2 2720   1.721   3.520   2.994
  901SOL     OW 2721   1.252   3.593   2.990
  901SOL    HW1 2722   1.336   3.598   2.936
  901SOL    HW2 2723   1.229   3.497   3.008
  902SOL     OW 2724   0.083   3.120   2.884
  902SOL    HW1 2725   0.078   3.119   2.984
  902SOL    HW2 2726   0.000   3.079   2.846
  903SOL     OW 2727   0.688   3.524   3.578
  903SOL    HW1 2728   0.632   3.605   3.587
  903SOL    HW2 2729   0.740   3.528   3.492
  904SOL     OW 2730   1.726   1.997   2.385
  904SOL    HW1 2731   1.799   1.980   2.318
  904SOL    HW2 2732   1.695   1.910   2.423
  905SOL     OW 2733   1.388   3.435   2.339
  905SOL    HW1 2734   1.455   3.447   2.265
  905SOL    HW2 2735   1.348   3.524   2.362
  906SOL     OW 2736   0.130   3.656   3.713
  906SOL    HW1 2737   0.089   3.582   3.766
  906SOL    HW2 2738   0.194   3.707   3.771
  907SOL     OW 2739   1.280   2.789   2.534
  907SOL    HW1 2740   1.340   2.708   2.536
  907SOL    HW2 2741   1.320   2.858   2.474
  908SOL     OW 2742   0.830   3.135   3.284
  908SOL    HW1 2743   0.825   3.168   3.379
  908SOL    HW2 2744   0.744   3.154   3.238
  909SOL     OW 2745   0.672   3.478   2.016
  909SOL    HW1 2746   0.681   3.488   1.917
  909SOL    HW2 2747   0.632   3.389   2.037
  910SOL     OW 2748   1.650   3.582   3.256
  910SOL    HW1 2749   1.703   3.592   3.172
  910SOL    HW2 2750   1.623   3.672   3.290
  911SOL     OW 2751   1.841   2.037   2.825
  911SOL    HW1 2752   1.880   1.952   2.789
  911SOL    HW2 2753   1.743   2.039   2.806
  912SOL     OW 2754   0.263   2.188   2.582
  912SOL    HW1 2755   0.184   2.239   2.548
  912SOL    HW2 2756   0.254   2.173   2.680
  913SOL     OW 2757   1.194   3.474   1.893
  913SOL    HW1 2758   1.200   3.381   1.930
  913SOL    HW2 2759   1.135   3.474   1.813
  914SOL     OW 2760   0.822   2.864   3.234
  914SOL    HW1 2761   0.862   2.863   3.142
  914SOL    HW2 2762   0.832   2.956   3.274
  915SOL     OW 2763   0.916   2.772   2.153
  915SOL    HW1 2764   0.979   2.810   2.085
  915SOL    HW2 2765   0.956   2.689   2.192
  916SOL     OW 2766   1.504   3.469   1.906
  916SOL    HW1 2767   1.412   3.506   1.913
  916SOL    HW2 2768   1.542   3.489   1.816
  917SOL     OW 2769   0.372   3.150   3.352
  917SOL    HW1 2770   0.359   3.243   3.318
  917SOL    HW2 2771   0.288   3.098   3.339
  918SOL     OW 2772   1.614   3.154   3.151
  918SOL    HW1 2773   1.674   3.157   3.231
  918SOL    HW2 2774   1.539   3.218   3.164
  919SOL     OW 2775   1.039   2.960   2.558
  919SOL    HW1 2776   0.969   2.913   2.612
  919SOL    HW2 2777   1.098   2.892   2.515
  920SOL     OW 2778   1.014   2.098   2.833
  920SOL    HW1 2779   1.006   2.062   2.740
  920SOL    HW2 2780   1.012   2.022   2.898
  921SOL     OW 2781   0.590   3.349   2.353
  921SOL    HW1 2782   0.632   3.291   2.283
  921SOL    HW2 2783   0.546   3.428   2.309
  922SOL     OW 2784   1.709   2.247   3.243
  922SOL    HW1 2785   1.782   2.316   3.247
  922SOL    HW2 2786   1.737   2.172   3.184
  923SOL     OW 2787   0.255   3.210   2.152
  923SOL    HW1 2788   0.159   3.211   2.125
  923SOL    HW2 2789   0.267   3.263   2.236
  924SOL     OW 2790   0.105   2.875   3.588
  924SOL    HW1 2791   0.028   2.842   3.642
  924SOL    HW2 2792   0.190   2.845   3.630
  925SOL     OW 2793   0.672   2.065   3.351
  925SOL    HW1 2794   0.762   2.049   3.311
  925SOL    HW2 2795   0.680   2.070   3.450
  926SOL     OW 2796   0.075   2.207   1.895
  926SOL    HW1 2797  -0.017   2.179   1.866
  926SOL    HW2 2798   0.106   2.284   1.839
  927SOL     OW 2799   1.440   2.718   3.260
  927SOL    HW1 2800   1.383   2.770   3.197
  927SOL    HW2 2801   1.536   2.730   3.236
  928SOL     OW 2802   0.072   2.028   2.180
  928SOL    HW1 2803   0.055   2.111   2.126
  928SOL    HW2 2804   0.162   1.991   2.158
  929SOL     OW 2805   1.183   3.197   1.981
  929SOL    HW1 2806   1.084   3.186   1.983
  929SOL    HW2 2807   1.217   3.212   2.074
  930SOL     OW 2808   0.613   2.704   3.293
  930SOL    HW1 2809   0.669   2.785   3.276
  930SOL    HW2 2810   0.672   2.624   3.296
  931SOL     OW 2811   1.493   3.629   2.821
  931SOL    HW1 2812   1.526   3.693   2.752
  931SOL    HW2 2813   1.559   3.623   2.896
  932SOL     OW 2814   0.716   2.427   3.570
  932SOL    HW1 2815   0.735   2.492   3.644
  932SOL    HW2 2816   0.776   2.347   3.579
  933SOL     OW 2817   1.450   3.082   3.495
  933SOL    HW1 2818   1.441   3.072   3.594
  933SOL    HW2 2819   1.546   3.075   3.469
  934SOL     OW 2820   0.390   3.603   3.422
  934SOL    HW1 2821   0.299   3.644   3.420
  934SOL    HW2 2822   0.383   3.509   3.454
  935SOL     OW 2823   1.674   2.745   3.116
  935SOL    HW1 2824   1.647   2.656   3.079
  935SOL    HW2 2825   1.675   2.813   3.043
  936SOL     OW 2826   1.225   2.187   2.311
  936SOL    HW1 2827   1.290   2.113   2.300
  936SOL    HW2 2828   1.245   2.237   2.395
  937SOL     OW 2829   0.594   2.607   2.514
  937SOL    HW1 2830   0.644   2.692   2.495
  937SOL    HW2 2831   0.506   2.609   2.466
  938SOL     OW 2832   1.777   2.204   3.504
  938SOL    HW1 2833   1.760   2.235   3.410
  938SOL    HW2 2834   1.693   2.167   3.542
  939SOL     OW 2835   1.730   2.796   3.379
  939SOL    HW1 2836   1.768   2.887   3.394
  939SOL    HW2 2837   1.722   2.779   3.280
  940SOL     OW 2838   0.859   3.236   1.878
  940SOL    HW1 2839   0.813   3.251   1.966
  940SOL    HW2 2840   0.903   3.321   1.848
  941SOL     OW 2841   0.661   3.652   2.815
  941SOL    HW1 2842   0.615   3.740   2.802
  941SOL    HW2 2843   0.760   3.664   2.808
  942SOL     OW 2844   0.859   2.818   2.723
  942SOL    HW1 2845   0.913   2.749   2.771
  942SOL    HW2 2846   0.827   2.887   2.789
  943SOL     OW 2847   1.083   2.846   1.949
  943SOL    HW1 2848   1.060   2.899   1.867
  943SOL    HW2 2849   1.164   2.790   1.930
  944SOL     OW 2850   1.861   3.431   2.713
  944SOL    HW1 2851   1.790   3.419   2.643
  944SOL    HW2 2852   1.862   3.352   2.773
  945SOL     OW 2853   0.221   3.176   3.706
  945SOL    HW1 2854   0.156   3.103   3.685
  945SOL    HW2 2855   0.225   3.190   3.804
  946SOL     OW 2856   0.079   3.102   2.515
  946SOL    HW1 2857   0.078   3.055   2.603
  946SOL    HW2 2858   0.161   3.074   2.464
  947SOL     OW 2859   0.672   3.253   3.486
  947SOL    HW1 2860   0.594   3.203   3.524
  947SOL    HW2 2861   0.669   3.348   3.517
  948SOL     OW 2862   1.824   2.054   3.089
  948SOL    HW1 2863   1.820   1.964   3.133
  948SOL    HW2 2864   1.827   2.043   2.990
  949SOL     OW 2865   0.428   2.286   2.382
  949SOL    HW1 2866   0.458   2.214   2.320
  949SOL    HW2 2867   0.389   2.246   2.465
  950SOL     OW 2868   1.705   3.349   2.966
  950SOL    HW1 2869   1.612   3.324   2.939
  950SOL    HW2 2870   1.731   3.299   3.048
  951SOL     OW 2871   0.317   2.409   3.142
  951SOL    HW1 2872   0.355   2.350   3.214
  951SOL    HW2 2873   0.357   2.383   3.054
  952SOL     OW 2874   0.812   3.448   2.549
  952SOL    HW1 2875   0.844   3.458   2.455
  952SOL    HW2 2876   0.733   3.386   2.551
  953SOL     OW 2877   1.424   2.076   2.974
  953SOL    HW1 2878   1.476   2.011   3.029
  953SOL    HW2 2879   1.375   2.139   3.035
  954SOL     OW 2880   1.001   1.896   3.016
  954SOL    HW1 2881   0.938   1.824   2.985
  954SOL    HW2 2882   1.094   1.860   3.016
  955SOL     OW 2883   0.770   3.192   2.163
  955SOL    HW1 2884   0.724   3.105   2.180
  955SOL    HW2 2885   0.861   3.189   2.204
  956SOL     OW 2886   0.618   3.429   3.146
  956SOL    HW1 2887   0.613   3.511   3.203
  956SOL    HW2 2888   0.707   3.426   3.101
  957SOL     OW 2889   1.352   1.914   2.030
  957SOL    HW1 2890   1.387   1.873   1.946
  957SOL    HW2 2891   1.262   1.876   2.050
  958SOL     OW 2892   1.300   2.315   2.553
  958SOL    HW1 2893   1.241   2.395   2.557
  958SOL    HW2 2894   1.315   2.280   2.646
  959SOL     OW 2895   1.593   2.083   2.744
  959SOL    HW1 2896   1.509   2.082   2.798
  959SOL    HW2 2897   1.595   2.166   2.688
  960SOL     OW 2898   0.039   2.939   2.162
  960SOL    HW1 2899   0.138   2.928   2.153
  960SOL    HW2 2900  -0.001   2.853   2.194
  961SOL     OW 2901   0.875   3.508   2.199
  961SOL    HW1 2902   0.798   3.473   2.145
  961SOL    HW2 2903   0.843   3.579   2.261
  962SOL     OW 2904   0.230   2.490   3.837
  962SOL    HW1 2905   0.137   2.488   3.874
  962SOL    HW2 2906   0.231   2.451   3.745
  963SOL     OW 2907   0.019   2.230   4.371
  963SOL    HW1 2908  -0.063   2.273   4.410
  963SOL    HW2 2909  -0.009   2.157   4.308
  964SOL     OW 2910   1.555   3.373   4.427
  964SOL    HW1 2911   1.498   3.357   4.508
  964SOL    HW2 2912   1.496   3.383   4.347
  965SOL     OW 2913   1.135   2.565   4.441
  965SOL    HW1 2914   1.192   2.643   4.416
  965SOL    HW2 2915   1.075   2.591   4.517
  966SOL     OW 2916   1.755   2.469   3.955
  966SOL    HW1 2917   1.743   2.456   3.856
  966SOL    HW2 2918   1.725   2.388   4.004
  967SOL     OW 2919   0.768   3.006   4.747
  967SOL    HW1 2920   0.690   3.023   4.807
  967SOL    HW2 2921   0.802   3.093   4.711
  968SOL     OW 2922   0.685   2.874   4.389
  968SOL    HW1 2923   0.754   2.858   4.459
  968SOL    HW2 2924   0.612   2.931   4.427
  969SOL     OW 2925   1.603   2.309   4.461
  969SOL    HW1 2926   1.529   2.355   4.411
  969SOL    HW2 2927   1.654   2.377   4.514
  970SOL     OW 2928   0.231   3.575   4.207
  970SOL    HW1 2929   0.265   3.652   4.261
  970SOL    HW2 2930   0.275   3.575   4.117
  971SOL     OW 2931   0.230   3.296   4.262
  971SOL    HW1 2932   0.204   3.392   4.262
  971SOL    HW2 2933   0.159   3.242   4.307
  972SOL     OW 2934   0.240   2.953   4.610
  972SOL    HW1 2935   0.254   2.869   4.662
  972SOL    HW2 2936   0.185   3.017   4.665
  973SOL     OW 2937   0.606   2.826   3.847
  973SOL    HW1 2938   0.613   2.910   3.793
  973SOL    HW2 2939   0.652   2.839   3.935
  974SOL     OW 2940   0.122   2.505   4.287
  974SOL    HW1 2941   0.077   2.417   4.304
  974SOL    HW2 2942   0.121   2.559   4.371
  975SOL     OW 2943   1.842   3.629   4.083
  975SOL    HW1 2944   1.896   3.600   4.163
  975SOL    HW2 2945   1.872   3.719   4.054
  976SOL     OW 2946   0.027   3.458   3.841
  976SOL    HW1 2947   0.008   3.362   3.862
  976SOL    HW2 2948  -0.006   3.516   3.916
  977SOL     OW 2949   1.689   2.784   4.336
  977SOL    HW1 2950   1.784   2.755   4.344
  977SOL    HW2 2951   1.681   2.849   4.261
  978SOL     OW 2952   1.641   2.970   4.156
  978SOL    HW1 2953   1.727   2.972   4.104
  978SOL    HW2 2954   1.655   3.017   4.244
  979SOL     OW 2955   0.613   3.227   4.450
  979SOL    HW1 2956   0.564   3.140   4.459
  979SOL    HW2 2957   0.590   3.270   4.363
  980SOL     OW 2958   0.809   1.866   4.226
  980SOL    HW1 2959   0.849   1.957   4.217
  980SOL    HW2 2960   0.709   1.874   4.232
  981SOL     OW 2961   1.525   2.861   3.914
  981SOL    HW1 2962   1.462   2.785   3.927
  981SOL    HW2 2963   1.573   2.879   4.000
  982SOL     OW 2964   1.466   3.279   4.677
  982SOL    HW1 2965   1.407   3.285   4.757
  982SOL    HW2 2966   1.451   3.191   4.631
  983SOL     OW 2967   1.667   3.576   4.296
  983SOL    HW1 2968   1.626   3.553   4.208
  983SOL    HW2 2969   1.649   3.502   4.361
  984SOL     OW 2970   0.598   2.591   3.994
  984SOL    HW1 2971   0.622   2.660   3.926
  984SOL    HW2 2972   0.520   2.624   4.048
  985SOL     OW 2973   1.281   2.207   4.668
  985SOL    HW1 2974   1.195   2.157   4.655
  985SOL    HW2 2975   1.343   2.153   4.724
  986SOL     OW 2976   1.576   3.524   4.031
  986SOL    HW1 2977   1.665   3.570   4.034
  986SOL    HW2 2978   1.555   3.500   3.936
  987SOL     OW 2979   1.041   2.563   4.153
  987SOL    HW1 2980   1.067   2.559   4.249
  987SOL    HW2 2981   0.956   2.512   4.139
  988SOL     OW 2982   0.076   2.673   4.513
  988SOL    HW1 2983   0.175   2.661   4.522
  988SOL    HW2 2984   0.052   2.768   4.534
  989SOL     OW 2985   0.865   2.210   3.919
  989SOL    HW1 2986   0.924   2.273   3.870
  989SOL    HW2 2987   0.884   2.116   3.890
  990SOL     OW 2988   1.362   3.006   4.269
  990SOL    HW1 2989   1.445   2.977   4.221
  990SOL    HW2 2990   1.313   3.073   4.213
  991SOL     OW 2991   1.008   3.318   4.201
  991SOL    HW1 2992   0.962   3.390   4.149
  991SOL    HW2 2993   1.004   3.338   4.299
  992SOL     OW 2994   0.351   3.663   4.577
  992SOL    HW1 2995   0.401   3.577   4.583
  992SOL    HW2 2996   0.416   3.740   4.574
  993SOL     OW 2997   1.795   2.928   4.597
  993SOL    HW1 2998   1.733   2.913   4.521
  993SOL    HW2 2999   1.743   2.939   4.682
  994SOL     OW 3000   0.321   2.805   3.966
  994SOL    HW1 3001   0.403   2.844   3.924
  994SOL    HW2 3002   0.294   2.723   3.917
  995SOL     OW 3003   1.458   2.597   4.452
  995SOL    HW1 3004   1.453   2.532   4.527
  995SOL    HW2 3005   1.538   2.656   4.465
  996SOL     OW 3006   1.111   3.638   3.961
  996SOL    HW1 3007   1.051   3.576   4.011
  996SOL    HW2 3008   1.142   3.594   3.876
  997SOL     OW 3009   1.632   3.239   3.805
  997SOL    HW1 3010   1.600   3.333   3.795
  997SOL    HW2 3011   1.556   3.176   3.793
  998SOL     OW 3012   0.464   3.605   4.047
  998SOL    HW1 3013   0.497   3.644   4.133
  998SOL    HW2 3014   0.540   3.598   3.982
  999SOL     OW 3015   1.400   1.969   4.150
  999SOL    HW1 3016   1.376   1.932   4.060
  999SOL    HW2 3017   1.499   1.985   4.154
 1000SOL     OW 3018   0.382   2.562   4.204
 1000SOL    HW1 3019   0.427   2.472   4.201
 1000SOL    HW2 3020   0.288   2.551   4.237
 1001SOL     OW 3021   0.614   1.984   3.841
 1001SOL    HW1 3022   0.712   1.962   3.848
 1001SOL    HW2 3023   0.583   1.967   3.748
 1002SOL     OW 3024   0.922   2.365   4.623
 1002SOL    HW1 3025   0.897   2.356   4.527
 1002SOL    HW2 3026   0.970   2.283   4.654
 1003SOL     OW 3027   0.539   1.926   4.236
 1003SOL    HW1 3028   0.458   1.927   4.294
 1003SOL    HW2 3029   0.542   2.009   4.181
 1004SOL     OW 3030   1.434   3.050   3.765
 1004SOL    HW1 3031   1.466   2.974   3.822
 1004SOL    HW2 3032   1.342   3.077   3.795
 1005SOL     OW 3033   0.297   1.897   3.895
 1005SOL    HW1 3034   0.346   1.981   3.874
 1005SOL    HW2 3035   0.359   1.832   3.940
 1006SOL     OW 3036   0.935   2.098   4.204
 1006SOL    HW1 3037   0.887   2.139   4.126
 1006SOL    HW2 3038   1.034   2.096   4.185
 1007SOL     OW 3039   1.227   3.432   4.517
 1007SOL    HW1 3040   1.248   3.506   4.452
 1007SOL    HW2 3041   1.295   3.432   4.590
 1008SOL     OW 3042   0.459   3.014   4.465
 1008SOL    HW1 3043   0.388   2.987   4.530
 1008SOL    HW2 3044   0.433   2.986   4.372
 1009SOL     OW 3045   1.271   3.659   4.315
 1009SOL    HW1 3046   1.315   3.723   4.251
 1009SOL    HW2 3047   1.221   3.711   4.385
 1010SOL     OW 3048   1.032   2.411   3.740
 1010SOL    HW1 3049   0.991   2.493   3.701
 1010SOL    HW2 3050   1.096   2.437   3.813
 1011SOL     OW 3051   0.866   2.316   4.366
 1011SOL    HW1 3052   0.834   2.388   4.304
 1011SOL    HW2 3053   0.890   2.235   4.313
 1012SOL     OW 3054   1.017   1.901   4.477
 1012SOL    HW1 3055   0.945   1.906   4.408
 1012SOL    HW2 3056   0.993   1.832   4.546
 1013SOL     OW 3057   1.429   3.035   4.591
 1013SOL    HW1 3058   1.374   2.951   4.584
 1013SOL    HW2 3059   1.455   3.064   4.499
 1014SOL     OW 3060   1.857   2.695   4.101
 1014SOL    HW1 3061   1.899   2.631   4.165
 1014SOL    HW2 3062   1.819   2.644   4.023
 1015SOL     OW 3063   0.488   3.247   3.898
 1015SOL    HW1 3064   0.401   3.232   3.945
 1015SOL    HW2 3065   0.471   3.273   3.803
 1016SOL     OW 3066   1.664   3.142   4.381
 1016SOL    HW1 3067   1.763   3.150   4.395
 1016SOL    HW2 3068   1.619   3.226   4.412
 1017SOL     OW 3069   1.390   2.437   3.802
 1017SOL    HW1 3070   1.336   2.416   3.883
 1017SOL    HW2 3071   1.481   2.396   3.811
 1018SOL     OW 3072   0.527   2.118   4.052
 1018SOL    HW1 3073   0.554   2.059   3.977
 1018SOL    HW2 3074   0.527   2.213   4.021
 1019SOL     OW 3075   0.705   2.912   4.092
 1019SOL    HW1 3076   0.691   2.919   4.191
 1019SOL    HW2 3077   0.789   2.861   4.074
 1020SOL     OW 3078   0.367   2.962   4.225
 1020SOL    HW1 3079   0.360   3.045   4.169
 1020SOL    HW2 3080   0.371   2.882   4.165
 1021SOL     OW 3081   0.566   2.399   4.589
 1021SOL    HW1 3082   0.578   2.465   4.515
 1021SOL    HW2 3083   0.612   2.433   4.672
 1022SOL     OW 3084   1.252   3.210   4.112
 1022SOL    HW1 3085   1.302   3.287   4.152
 1022SOL    HW2 3086   1.157   3.212   4.144
 1023SOL     OW 3087   1.582   2.501   4.196
 1023SOL    HW1 3088   1.551   2.562   4.269
 1023SOL    HW2 3089   1.632   2.553   4.127
 1024SOL     OW 3090   1.209   2.387   3.999
 1024SOL    HW1 3091   1.222   2.303   4.053
 1024SOL    HW2 3092   1.180   2.461   4.059
 1025SOL     OW 3093   0.732   2.496   4.788
 1025SOL    HW1 3094   0.791   2.470   4.712
 1025SOL    HW2 3095   0.704   2.592   4.777
 1026SOL     OW 3096   0.307   1.925   4.342
 1026SOL    HW1 3097   0.296   2.019   4.375
 1026SOL    HW2 3098   0.302   1.862   4.419
 1027SOL     OW 3099   1.622   2.229   4.098
 1027SOL    HW1 3100   1.624   2.153   4.162
 1027SOL    HW2 3101   1.574   2.306   4.138
 1028SOL     OW 3102   1.540   2.136   3.849
 1028SOL    HW1 3103   1.479   2.061   3.872
 1028SOL    HW2 3104   1.562   2.188   3.932
 1029SOL     OW 3105   1.303   2.700   3.766
 1029SOL    HW1 3106   1.337   2.607   3.781
 1029SOL    HW2 3107   1.321   2.727   3.671
 1030SOL     OW 3108   1.068   3.195   4.573
 1030SOL    HW1 3109   1.075   3.111   4.518
 1030SOL    HW2 3110   1.130   3.264   4.537
 1031SOL     OW 3111   0.319   2.672   4.673
 1031SOL    HW1 3112   0.412   2.708   4.678
 1031SOL    HW2 3113   0.313   2.587   4.725
 1032SOL     OW 3114   0.008   3.188   3.924
 1032SOL    HW1 3115  -0.085   3.209   3.893
 1032SOL    HW2 3116   0.018   3.089   3.937
 1033SOL     OW 3117   0.088   3.663   4.651
 1033SOL    HW1 3118   0.046   3.577   4.624
 1033SOL    HW2 3119   0.182   3.666   4.617
 1034SOL     OW 3120   0.504   3.430   4.634
 1034SOL    HW1 3121   0.570   3.504   4.643
 1034SOL    HW2 3122   0.548   3.351   4.592
 1035SOL     OW 3123   0.815   2.434   4.049
 1035SOL    HW1 3124   0.822   2.345   4.003
 1035SOL    HW2 3125   0.721   2.468   4.041
 1036SOL     OW 3126   0.473   2.362   3.915
 1036SOL    HW1 3127   0.534   2.442   3.919
 1036SOL    HW2 3128   0.378   2.393   3.922
 1037SOL     OW 3129   1.302   2.717   4.033
 1037SOL    HW1 3130   1.216   2.686   4.075
 1037SOL    HW2 3131   1.298   2.703   3.934
 1038SOL     OW 3132   1.759   3.609   4.878
 1038SOL    HW1 3133   1.820   3.639   4.805
 1038SOL    HW2 3134   1.721   3.520   4.856
 1039SOL     OW 3135   1.726   1.997   4.247
 1039SOL    HW1 3136   1.799   1.980   4.180
 1039SOL    HW2 3137   1.695   1.910   4.285
 1040SOL     OW 3138   1.388   3.435   4.201
 1040SOL    HW1 3139   1.455   3.447   4.127
 1040SOL    HW2 3140   1.348   3.524   4.224
 1041SOL     OW 3141   1.280   2.789   4.396
 1041SOL    HW1 3142   1.340   2.708   4.398
 1041SOL    HW2 3143   1.320   2.858   4.336
 1042SOL     OW 3144   0.672   3.478   3.878
 1042SOL    HW1 3145   0.681   3.488   3.779
 1042SOL    HW2 3146   0.632   3.389   3.899
 1043SOL     OW 3147   1.841   2.037   4.687
 1043SOL    HW1 3148   1.880   1.952   4.651
 1043SOL    HW2 3149   1.743   2.039   4.668
 1044SOL     OW 3150   0.263   2.188   4.444
 1044SOL    HW1 3151   0.184   2.239   4.410
 1044SOL    HW2 3152   0.254   2.173   4.542
 1045SOL     OW 3153   1.194   3.474   3.755
 1045SOL    HW1 3154   1.200   3.381   3.792
 1045SOL    HW2 3155   1.135   3.474   3.675
 1046SOL     OW 3156   0.916   2.772   4.015
 1046SOL    HW1 3157   0.979   2.810   3.947
 1046SOL    HW2 3158   0.956   2.689   4.054
 1047SOL     OW 3159   1.504   3.469   3.768
 1047SOL    HW1 3160   1.412   3.506   3.775
 1047SOL    HW2 3161   1.542   3.489   3.678
 1048SOL     OW 3162   1.039   2.960   4.420
 1048SOL    HW1 3163   0.969   2.913   4.474
 1048SOL    HW2 3164   1.098   2.892   4.377
 1049SOL     OW 3165   0.590   3.349   4.215
 1049SOL    HW1 3166   0.632   3.291   4.145
 1049SOL    HW2 3167   0.546   3.428   4.171
 1050SOL     OW 3168   0.255   3.210   4.014
 1050SOL    HW1 3169   0.159   3.211   3.987
 1050SOL    HW2 3170   0.267   3.263   4.098
 1051SOL     OW 3171   0.075   2.207   3.757
 1051SOL    HW1 3172  -0.017   2.179   3.728
 1051SOL    HW2 3173   0.106   2.284   3.701
 1052SOL     OW 3174   0.072   2.028   4.042
 1052SOL    HW1 3175   0.055   2.111   3.988
 1052SOL    HW2 3176   0.162   1.991   4.020
 1053SOL     OW 3177   1.183   3.197   3.843
 1053SOL    HW1 3178   1.084   3.186   3.845
 1053SOL    HW2 3179   1.217   3.212   3.936
 1054SOL     OW 3180   1.674   2.745   4.978
 1054SOL    HW1 3181   1.647   2.656   4.941
 1054SOL    HW2 3182   1.675   2.813   4.905
 1055SOL     OW 3183   1.225   2.187   4.173
 1055SOL    HW1 3184   1.290   2.113   4.162
 1055SOL    HW2 3185   1.245   2.237   4.257
 1056SOL     OW 3186   0.594   2.607   4.376
 1056SOL    HW1 3187   0.644   2.692   4.357
 1056SOL    HW2 3188   0.506   2.609   4.328
 1057SOL     OW 3189   0.859   3.236   3.740
 1057SOL    HW1 3190   0.813   3.251   3.828
 1057SOL    HW2 3191   0.903   3.321   3.710
 1058SOL     OW 3192   0.661   3.652   4.677
 1058SOL    HW1 3193   0.615   3.740   4.664
 1058SOL    HW2 3194   0.760   3.664   4.670
 1059SOL     OW 3195   0.859   2.818   4.585
 1059SOL    HW1 3196   0.913   2.749   4.633
 1059SOL    HW2 3197   0.827   2.887   4.651
 1060SOL     OW 3198   1.083   2.846   3.811
 1060SOL    HW1 3199   1.060   2.899   3.729
 1060SOL    HW2 3200   1.164   2.790   3.792
 1061SOL     OW 3201   1.861   3.431   4.575
 1061SOL    HW1 3202   1.790   3.419   4.505
 1061SOL    HW2 3203   1.862   3.352   4.635
 1062SOL     OW 3204   0.079   3.102   4.377
 1062SOL    HW1 3205   0.078   3.055   4.465
 1062SOL    HW2 3206   0.161   3.074   4.326
 1063SOL     OW 3207   1.824   2.054   4.951
 1063SOL    HW1 3208   1.820   1.964   4.995
 1063SOL    HW2 3209   1.827   2.043   4.852
 1064SOL     OW 3210   0.428   2.286   4.244
 1064SOL    HW1 3211   0.458   2.214   4.182
 1064SOL    HW2 3212   0.389   2.246   4.327
 1065SOL     OW 3213   0.812   3.448   4.411
 1065SOL    HW1 3214   0.844   3.458   4.317
 1065SOL    HW2 3215   0.733   3.386   4.413
 1066SOL     OW 3216   0.770   3.192   4.025
 1066SOL    HW1 3217   0.724   3.105   4.042
 1066SOL    HW2 3218   0.861   3.189   4.066
 1067SOL     OW 3219   1.352   1.914   3.892
 1067SOL    HW1 3220   1.387   1.873   3.808
 1067SOL    HW2 3221   1.262   1.876   3.912
 1068SOL     OW 3222   1.300   2.315   4.415
 1068SOL    HW1 3223   1.241   2.395   4.419
 1068SOL    HW2 3224   1.315   2.280   4.508
 1069SOL     OW 3225   1.593   2.083   4.606
 1069SOL    HW1 3226   1.509   2.082   4.660
 1069SOL    HW2 3227   1.595   2.166   4.550
 1070SOL     OW 3228   0.039   2.939   4.024
 1070SOL    HW1 3229   0.138   2.928   4.015
 1070SOL    HW2 3230  -0.001   2.853   4.056
 1071SOL     OW 3231   0.875   3.508   4.061
 1071SOL    HW1 3232   0.798   3.473   4.007
 1071SOL    HW2 3233   0.843   3.579   4.123
 1072SOL     OW 3234   0.230   4.352   0.113
 1072SOL    HW1 3235   0.137   4.350   0.150
 1072SOL    HW2 3236   0.231   4.313   0.021
 1073SOL     OW 3237   0.225   3.999   0.996
 1073SOL    HW1 3238   0.260   3.982   1.088
 1073SOL    HW2 3239   0.137   3.954   0.984
 1074SOL     OW 3240   0.019   4.092   0.647
 1074SOL    HW1 3241  -0.063   4.135   0.686
 1074SOL    HW2 3242  -0.009   4.019   0.584
 1075SOL     OW 3243   1.135   4.427   0.717
 1075SOL    HW1 3244   1.192   4.505   0.692
 1075SOL    HW2 3245   1.075   4.453   0.793
 1076SOL     OW 3246   1.755   4.331   0.231
 1076SOL    HW1 3247   1.743   4.318   0.132
 1076SOL    HW2 3248   1.725   4.250   0.280
 1077SOL     OW 3249   0.850   4.522   1.823
 1077SOL    HW1 3250   0.846   4.598   1.888
 1077SOL    HW2 3251   0.872   4.558   1.732
 1078SOL     OW 3252   0.685   4.736   0.665
 1078SOL    HW1 3253   0.754   4.720   0.735
 1078SOL    HW2 3254   0.612   4.793   0.703
 1079SOL     OW 3255   0.438   4.116   1.499
 1079SOL    HW1 3256   0.520   4.060   1.508
 1079SOL    HW2 3257   0.357   4.058   1.503
 1080SOL     OW 3258   1.603   4.171   0.737
 1080SOL    HW1 3259   1.529   4.217   0.687
 1080SOL    HW2 3260   1.654   4.239   0.790
 1081SOL     OW 3261   1.594   3.838   1.480
 1081SOL    HW1 3262   1.576   3.905   1.408
 1081SOL    HW2 3263   1.591   3.884   1.569
 1082SOL     OW 3264   0.122   4.367   0.563
 1082SOL    HW1 3265   0.077   4.279   0.580
 1082SOL    HW2 3266   0.121   4.421   0.647
 1083SOL     OW 3267   0.113   4.461   1.597
 1083SOL    HW1 3268   0.201   4.448   1.642
 1083SOL    HW2 3269   0.100   4.558   1.575
 1084SOL     OW 3270   0.809   3.728   0.502
 1084SOL    HW1 3271   0.849   3.819   0.493
 1084SOL    HW2 3272   0.709   3.736   0.508
 1085SOL     OW 3273   0.197   4.700   1.264
 1085SOL    HW1 3274   0.286   4.655   1.250
 1085SOL    HW2 3275   0.124   4.635   1.245
 1086SOL     OW 3276   1.525   4.723   0.190
 1086SOL    HW1 3277   1.462   4.647   0.203
 1086SOL    HW2 3278   1.573   4.741   0.276
 1087SOL     OW 3279   0.317   3.975   1.801
 1087SOL    HW1 3280   0.388   4.046   1.807
 1087SOL    HW2 3281   0.229   4.014   1.829
 1088SOL     OW 3282   0.598   4.453   0.270
 1088SOL    HW1 3283   0.622   4.522   0.202
 1088SOL    HW2 3284   0.520   4.486   0.324
 1089SOL     OW 3285   1.281   4.069   0.944
 1089SOL    HW1 3286   1.195   4.019   0.931
 1089SOL    HW2 3287   1.343   4.015   1.000
 1090SOL     OW 3288   0.807   4.329   1.465
 1090SOL    HW1 3289   0.760   4.326   1.554
 1090SOL    HW2 3290   0.756   4.274   1.399
 1091SOL     OW 3291   1.394   4.193   1.674
 1091SOL    HW1 3292   1.374   4.236   1.762
 1091SOL    HW2 3293   1.472   4.131   1.683
 1092SOL     OW 3294   0.973   4.614   1.572
 1092SOL    HW1 3295   1.019   4.530   1.543
 1092SOL    HW2 3296   0.917   4.648   1.497
 1093SOL     OW 3297   0.991   4.134   1.242
 1093SOL    HW1 3298   0.914   4.168   1.296
 1093SOL    HW2 3299   0.957   4.083   1.163
 1094SOL     OW 3300   1.041   4.425   0.429
 1094SOL    HW1 3301   1.067   4.421   0.525
 1094SOL    HW2 3302   0.956   4.374   0.415
 1095SOL     OW 3303   0.076   4.535   0.789
 1095SOL    HW1 3304   0.175   4.523   0.798
 1095SOL    HW2 3305   0.052   4.630   0.810
 1096SOL     OW 3306   0.865   4.072   0.195
 1096SOL    HW1 3307   0.924   4.135   0.146
 1096SOL    HW2 3308   0.884   3.978   0.166
 1097SOL     OW 3309   1.719   4.309   1.831
 1097SOL    HW1 3310   1.693   4.398   1.795
 1097SOL    HW2 3311   1.717   4.241   1.758
 1098SOL     OW 3312   0.550   3.920   0.885
 1098SOL    HW1 3313   0.545   3.915   0.985
 1098SOL    HW2 3314   0.552   4.016   0.856
 1099SOL     OW 3315   1.458   4.459   0.728
 1099SOL    HW1 3316   1.453   4.394   0.803
 1099SOL    HW2 3317   1.538   4.518   0.741
 1100SOL     OW 3318   0.202   4.009   1.498
 1100SOL    HW1 3319   0.122   4.069   1.485
 1100SOL    HW2 3320   0.192   3.960   1.584
 1101SOL     OW 3321   1.400   3.831   0.426
 1101SOL    HW1 3322   1.376   3.794   0.336
 1101SOL    HW2 3323   1.499   3.847   0.430
 1102SOL     OW 3324   0.382   4.424   0.480
 1102SOL    HW1 3325   0.427   4.334   0.477
 1102SOL    HW2 3326   0.288   4.413   0.513
 1103SOL     OW 3327   1.547   3.946   1.729
 1103SOL    HW1 3328   1.542   3.983   1.821
 1103SOL    HW2 3329   1.475   3.877   1.717
 1104SOL     OW 3330   0.614   3.846   0.117
 1104SOL    HW1 3331   0.712   3.824   0.124
 1104SOL    HW2 3332   0.583   3.829   0.024
 1105SOL     OW 3333   0.781   3.988   1.749
 1105SOL    HW1 3334   0.848   3.927   1.792
 1105SOL    HW2 3335   0.708   4.007   1.814
 1106SOL     OW 3336   1.351   4.314   1.433
 1106SOL    HW1 3337   1.379   4.271   1.518
 1106SOL    HW2 3338   1.376   4.410   1.434
 1107SOL     OW 3339   0.922   4.227   0.899
 1107SOL    HW1 3340   0.897   4.218   0.803
 1107SOL    HW2 3341   0.970   4.145   0.930
 1108SOL     OW 3342   0.539   3.788   0.512
 1108SOL    HW1 3343   0.458   3.789   0.570
 1108SOL    HW2 3344   0.542   3.871   0.457
 1109SOL     OW 3345   0.297   3.759   0.171
 1109SOL    HW1 3346   0.346   3.843   0.150
 1109SOL    HW2 3347   0.359   3.694   0.216
 1110SOL     OW 3348   0.935   3.960   0.480
 1110SOL    HW1 3349   0.887   4.001   0.402
 1110SOL    HW2 3350   1.034   3.958   0.461
 1111SOL     OW 3351   1.076   4.407   1.464
 1111SOL    HW1 3352   0.996   4.346   1.467
 1111SOL    HW2 3353   1.157   4.354   1.440
 1112SOL     OW 3354   1.032   4.273   0.016
 1112SOL    HW1 3355   0.991   4.355  -0.023
 1112SOL    HW2 3356   1.096   4.299   0.089
 1113SOL     OW 3357   0.078   4.280   1.386
 1113SOL    HW1 3358   0.170   4.279   1.345
 1113SOL    HW2 3359   0.072   4.354   1.453
 1114SOL     OW 3360   0.561   3.946   1.147
 1114SOL    HW1 3361   0.599   3.862   1.184
 1114SOL    HW2 3362   0.473   3.965   1.191
 1115SOL     OW 3363   0.866   4.178   0.642
 1115SOL    HW1 3364   0.834   4.250   0.580
 1115SOL    HW2 3365   0.890   4.097   0.589
 1116SOL     OW 3366   1.017   3.763   0.753
 1116SOL    HW1 3367   0.945   3.768   0.684
 1116SOL    HW2 3368   0.993   3.694   0.822
 1117SOL     OW 3369   1.466   4.314   0.992
 1117SOL    HW1 3370   1.436   4.219   0.999
 1117SOL    HW2 3371   1.539   4.330   1.058
 1118SOL     OW 3372   1.857   4.557   0.377
 1118SOL    HW1 3373   1.899   4.493   0.441
 1118SOL    HW2 3374   1.819   4.506   0.299
 1119SOL     OW 3375   1.390   4.299   0.078
 1119SOL    HW1 3376   1.336   4.278   0.159
 1119SOL    HW2 3377   1.481   4.258   0.087
 1120SOL     OW 3378   0.527   3.980   0.328
 1120SOL    HW1 3379   0.554   3.921   0.253
 1120SOL    HW2 3380   0.527   4.075   0.297
 1121SOL     OW 3381   1.638   4.823   1.079
 1121SOL    HW1 3382   1.643   4.904   1.138
 1121SOL    HW2 3383   1.552   4.825   1.028
 1122SOL     OW 3384   0.915   3.813   1.402
 1122SOL    HW1 3385   0.940   3.793   1.307
 1122SOL    HW2 3386   0.987   3.869   1.444
 1123SOL     OW 3387   0.410   4.537   1.251
 1123SOL    HW1 3388   0.496   4.549   1.301
 1123SOL    HW2 3389   0.368   4.450   1.278
 1124SOL     OW 3390   1.274   4.110   1.262
 1124SOL    HW1 3391   1.295   4.184   1.326
 1124SOL    HW2 3392   1.185   4.127   1.219
 1125SOL     OW 3393   0.566   4.261   0.865
 1125SOL    HW1 3394   0.578   4.327   0.791
 1125SOL    HW2 3395   0.612   4.295   0.948
 1126SOL     OW 3396   1.582   4.363   0.472
 1126SOL    HW1 3397   1.551   4.424   0.545
 1126SOL    HW2 3398   1.632   4.415   0.403
 1127SOL     OW 3399   0.402   4.475   1.598
 1127SOL    HW1 3400   0.470   4.530   1.551
 1127SOL    HW2 3401   0.442   4.387   1.625
 1128SOL     OW 3402   1.587   4.503   1.670
 1128SOL    HW1 3403   1.495   4.541   1.665
 1128SOL    HW2 3404   1.647   4.550   1.605
 1129SOL     OW 3405   1.013   3.829   1.770
 1129SOL    HW1 3406   1.019   3.914   1.718
 1129SOL    HW2 3407   1.045   3.753   1.713
 1130SOL     OW 3408   0.504   3.774   1.740
 1130SOL    HW1 3409   0.462   3.717   1.670
 1130SOL    HW2 3410   0.438   3.843   1.772
 1131SOL     OW 3411   0.573   4.594   1.029
 1131SOL    HW1 3412   0.617   4.683   1.020
 1131SOL    HW2 3413   0.510   4.594   1.106
 1132SOL     OW 3414   1.360   4.586   1.045
 1132SOL    HW1 3415   1.285   4.586   0.979
 1132SOL    HW2 3416   1.397   4.494   1.054
 1133SOL     OW 3417   1.209   4.249   0.275
 1133SOL    HW1 3418   1.222   4.165   0.329
 1133SOL    HW2 3419   1.180   4.323   0.335
 1134SOL     OW 3420   0.307   3.937   1.231
 1134SOL    HW1 3421   0.284   3.974   1.321
 1134SOL    HW2 3422   0.277   3.842   1.225
 1135SOL     OW 3423   0.037   5.034   1.282
 1135SOL    HW1 3424   0.090   4.985   1.350
 1135SOL    HW2 3425   0.059   5.132   1.287
 1136SOL     OW 3426   0.732   4.358   1.064
 1136SOL    HW1 3427   0.791   4.332   0.988
 1136SOL    HW2 3428   0.704   4.454   1.053
 1137SOL     OW 3429   1.728   4.659   1.854
 1137SOL    HW1 3430   1.682   4.652   1.765
 1137SOL    HW2 3431   1.666   4.703   1.920
 1138SOL     OW 3432   0.307   3.787   0.618
 1138SOL    HW1 3433   0.296   3.881   0.651
 1138SOL    HW2 3434   0.302   3.724   0.695
 1139SOL     OW 3435   1.622   4.091   0.374
 1139SOL    HW1 3436   1.624   4.015   0.438
 1139SOL    HW2 3437   1.574   4.168   0.414
 1140SOL     OW 3438   1.023   4.490   0.966
 1140SOL    HW1 3439   1.038   4.511   1.062
 1140SOL    HW2 3440   0.993   4.395   0.957
 1141SOL     OW 3441   0.350   4.622   1.804
 1141SOL    HW1 3442   0.426   4.666   1.852
 1141SOL    HW2 3443   0.385   4.575   1.722
 1142SOL     OW 3444   1.540   3.998   0.125
 1142SOL    HW1 3445   1.479   3.923   0.148
 1142SOL    HW2 3446   1.562   4.050   0.208
 1143SOL     OW 3447   1.303   4.562   0.042
 1143SOL    HW1 3448   1.337   4.469   0.057
 1143SOL    HW2 3449   1.321   4.589  -0.053
 1144SOL     OW 3450   0.319   4.534   0.949
 1144SOL    HW1 3451   0.412   4.570   0.954
 1144SOL    HW2 3452   0.313   4.449   1.001
 1145SOL     OW 3453   0.339   4.233   1.006
 1145SOL    HW1 3454   0.287   4.150   0.989
 1145SOL    HW2 3455   0.416   4.238   0.942
 1146SOL     OW 3456   1.138   4.104   1.678
 1146SOL    HW1 3457   1.093   4.167   1.742
 1146SOL    HW2 3458   1.231   4.135   1.661
 1147SOL     OW 3459   1.160   3.931   1.477
 1147SOL    HW1 3460   1.160   3.995   1.554
 1147SOL    HW2 3461   1.188   3.979   1.394
 1148SOL     OW 3462   1.002   4.520   1.238
 1148SOL    HW1 3463   1.043   4.488   1.324
 1148SOL    HW2 3464   0.906   4.493   1.235
 1149SOL     OW 3465   0.040   4.268   1.114
 1149SOL    HW1 3466   0.125   4.235   1.073
 1149SOL    HW2 3467   0.053   4.283   1.212
 1150SOL     OW 3468   0.189   4.244   1.722
 1150SOL    HW1 3469   0.248   4.204   1.652
 1150SOL    HW2 3470   0.131   4.315   1.681
 1151SOL     OW 3471   1.369   4.674   1.660
 1151SOL    HW1 3472   1.408   4.763   1.680
 1151SOL    HW2 3473   1.379   4.654   1.563
 1152SOL     OW 3474   0.815   4.296   0.325
 1152SOL    HW1 3475   0.822   4.207   0.279
 1152SOL    HW2 3476   0.721   4.330   0.317
 1153SOL     OW 3477   1.657   4.328   1.206
 1153SOL    HW1 3478   1.619   4.259   1.268
 1153SOL    HW2 3479   1.739   4.292   1.162
 1154SOL     OW 3480   0.671   4.188   1.269
 1154SOL    HW1 3481   0.637   4.099   1.239
 1154SOL    HW2 3482   0.697   4.242   1.189
 1155SOL     OW 3483   0.473   4.224   0.191
 1155SOL    HW1 3484   0.534   4.304   0.195
 1155SOL    HW2 3485   0.378   4.255   0.198
 1156SOL     OW 3486   0.159   4.861   1.466
 1156SOL    HW1 3487   0.181   4.800   1.542
 1156SOL    HW2 3488   0.169   4.812   1.380
 1157SOL     OW 3489   1.347   4.783   1.234
 1157SOL    HW1 3490   1.371   4.720   1.160
 1157SOL    HW2 3491   1.257   4.823   1.216
 1158SOL     OW 3492   1.302   4.579   0.309
 1158SOL    HW1 3493   1.216   4.548   0.351
 1158SOL    HW2 3494   1.298   4.565   0.210
 1159SOL     OW 3495   0.903   3.810   0.133
 1159SOL    HW1 3496   0.954   3.811   0.047
 1159SOL    HW2 3497   0.959   3.768   0.204
 1160SOL     OW 3498   1.726   3.859   0.523
 1160SOL    HW1 3499   1.799   3.842   0.456
 1160SOL    HW2 3500   1.695   3.772   0.561
 1161SOL     OW 3501   1.280   4.651   0.672
 1161SOL    HW1 3502   1.340   4.570   0.674
 1161SOL    HW2 3503   1.320   4.720   0.612
 1162SOL     OW 3504   1.841   3.899   0.963
 1162SOL    HW1 3505   1.880   3.814   0.927
 1162SOL    HW2 3506   1.743   3.901   0.944
 1163SOL     OW 3507   0.263   4.050   0.720
 1163SOL    HW1 3508   0.184   4.101   0.686
 1163SOL    HW2 3509   0.254   4.035   0.818
 1164SOL     OW 3510   1.014   3.960   0.971
 1164SOL    HW1 3511   1.006   3.924   0.878
 1164SOL    HW2 3512   1.012   3.884   1.036
 1165SOL     OW 3513   1.709   4.109   1.381
 1165SOL    HW1 3514   1.782   4.178   1.385
 1165SOL    HW2 3515   1.737   4.034   1.322
 1166SOL     OW 3516   0.105   4.737   1.726
 1166SOL    HW1 3517   0.028   4.704   1.780
 1166SOL    HW2 3518   0.190   4.707   1.768
 1167SOL     OW 3519   0.672   3.927   1.489
 1167SOL    HW1 3520   0.762   3.911   1.449
 1167SOL    HW2 3521   0.680   3.932   1.588
 1168SOL     OW 3522   0.075   4.069   0.033
 1168SOL    HW1 3523  -0.017   4.041   0.004
 1168SOL    HW2 3524   0.106   4.146  -0.023
 1169SOL     OW 3525   1.440   4.580   1.398
 1169SOL    HW1 3526   1.383   4.632   1.335
 1169SOL    HW2 3527   1.536   4.592   1.374
 1170SOL     OW 3528   0.072   3.890   0.318
 1170SOL    HW1 3529   0.055   3.973   0.264
 1170SOL    HW2 3530   0.162   3.853   0.296
 1171SOL     OW 3531   0.613   4.566   1.431
 1171SOL    HW1 3532   0.669   4.647   1.414
 1171SOL    HW2 3533   0.672   4.486   1.434
 1172SOL     OW 3534   0.716   4.289   1.708
 1172SOL    HW1 3535   0.735   4.354   1.782
 1172SOL    HW2 3536   0.776   4.209   1.717
 1173SOL     OW 3537   1.674   4.607   1.254
 1173SOL    HW1 3538   1.647   4.518   1.217
 1173SOL    HW2 3539   1.675   4.675   1.181
 1174SOL     OW 3540   1.225   4.049   0.449
 1174SOL    HW1 3541   1.290   3.975   0.438
 1174SOL    HW2 3542   1.245   4.099   0.533
 1175SOL     OW 3543   0.594   4.469   0.652
 1175SOL    HW1 3544   0.644   4.554   0.633
 1175SOL    HW2 3545   0.506   4.471   0.604
 1176SOL     OW 3546   1.777   4.066   1.642
 1176SOL    HW1 3547   1.760   4.097   1.548
 1176SOL    HW2 3548   1.693   4.029   1.680
 1177SOL     OW 3549   1.730   4.658   1.517
 1177SOL    HW1 3550   1.768   4.749   1.532
 1177SOL    HW2 3551   1.722   4.641   1.418
 1178SOL     OW 3552   1.824   3.916   1.227
 1178SOL    HW1 3553   1.820   3.826   1.271
 1178SOL    HW2 3554   1.827   3.905   1.128
 1179SOL     OW 3555   0.428   4.148   0.520
 1179SOL    HW1 3556   0.458   4.076   0.458
 1179SOL    HW2 3557   0.389   4.108   0.603
 1180SOL     OW 3558   0.317   4.271   1.280
 1180SOL    HW1 3559   0.355   4.212   1.352
 1180SOL    HW2 3560   0.357   4.245   1.192
 1181SOL     OW 3561   1.424   3.938   1.112
 1181SOL    HW1 3562   1.476   3.873   1.167
 1181SOL    HW2 3563   1.375   4.001   1.173
 1182SOL     OW 3564   1.001   3.758   1.154
 1182SOL    HW1 3565   0.938   3.686   1.123
 1182SOL    HW2 3566   1.094   3.722   1.154
 1183SOL     OW 3567   1.352   3.776   0.168
 1183SOL    HW1 3568   1.387   3.735   0.084
 1183SOL    HW2 3569   1.262   3.738   0.188
 1184SOL     OW 3570   1.300   4.177   0.691
 1184SOL    HW1 3571   1.241   4.257   0.695
 1184SOL    HW2 3572   1.315   4.142   0.784
 1185SOL     OW 3573   1.593   3.945   0.882
 1185SOL    HW1 3574   1.509   3.944   0.936
 1185SOL    HW2 3575   1.595   4.028   0.826
 1186SOL     OW 3576   0.230   4.352   1.975
 1186SOL    HW1 3577   0.137   4.350   2.012
 1186SOL    HW2 3578   0.231   4.313   1.883
 1187SOL     OW 3579   0.225   3.999   2.858
 1187SOL    HW1 3580   0.260   3.982   2.950
 1187SOL    HW2 3581   0.137   3.954   2.846
 1188SOL     OW 3582   0.019   4.092   2.509
 1188SOL    HW1 3583  -0.063   4.135   2.548
 1188SOL    HW2 3584  -0.009   4.019   2.446
 1189SOL     OW 3585   1.135   4.427   2.579
 1189SOL    HW1 3586   1.192   4.505   2.554
 1189SOL    HW2 3587   1.075   4.453   2.655
 1190SOL     OW 3588   1.755   4.331   2.093
 1190SOL    HW1 3589   1.743   4.318   1.994
 1190SOL    HW2 3590   1.725   4.250   2.142
 1191SOL     OW 3591   0.850   4.522   3.685
 1191SOL    HW1 3592   0.846   4.598   3.750
 1191SOL    HW2 3593   0.872   4.558   3.594
 1192SOL     OW 3594   0.685   4.736   2.527
 1192SOL    HW1 3595   0.754   4.720   2.597
 1192SOL    HW2 3596   0.612   4.793   2.565
 1193SOL     OW 3597   0.438   4.116   3.361
 1193SOL    HW1 3598   0.520   4.060   3.370
 1193SOL    HW2 3599   0.357   4.058   3.365
 1194SOL     OW 3600   1.603   4.171   2.599
 1194SOL    HW1 3601   1.529   4.217   2.549
 1194SOL    HW2 3602   1.654   4.239   2.652
 1195SOL     OW 3603   1.594   3.838   3.342
 1195SOL    HW1 3604   1.576   3.905   3.270
 1195SOL    HW2 3605   1.591   3.884   3.431
 1196SOL     OW 3606   0.122   4.367   2.425
 1196SOL    HW1 3607   0.077   4.279   2.442
 1196SOL    HW2 3608   0.121   4.421   2.509
 1197SOL     OW 3609   0.113   4.461   3.459
 1197SOL    HW1 3610   0.201   4.448   3.504
 1197SOL    HW2 3611   0.100   4.558   3.437
 1198SOL     OW 3612   0.809   3.728   2.364
 1198SOL    HW1 3613   0.849   3.819   2.355
 1198SOL    HW2 3614   0.709   3.736   2.370
 1199SOL     OW 3615   0.197   4.700   3.126
 1199SOL    HW1 3616   0.286   4.655   3.112
 1199SOL    HW2 3617   0.124   4.635   3.107
 1200SOL     OW 3618   1.525   4.723   2.052
 1200SOL    HW1 3619   1.462   4.647   2.065
 1200SOL    HW2 3620   1.573   4.741   2.138
 1201SOL     OW 3621   0.317   3.975   3.663
 1201SOL    HW1 3622   0.388   4.046   3.669
 1201SOL    HW2 3623   0.229   4.014   3.691
 1202SOL     OW 3624   0.598   4.453   2.132
 1202SOL    HW1 3625   0.622   4.522   2.064
 1202SOL    HW2 3626   0.520   4.486   2.186
 1203SOL     OW 3627   1.281   4.069   2.806
 1203SOL    HW1 3628   1.195   4.019   2.793
 1203SOL    HW2 3629   1.343   4.015   2.862
 1204SOL     OW 3630   0.807   4.329   3.327
 1204SOL    HW1 3631   0.760   4.326   3.416
 1204SOL    HW2 3632   0.756   4.274   3.261
 1205SOL     OW 3633   1.394   4.193   3.536
 1205SOL    HW1 3634   1.374   4.236   3.624
 1205SOL    HW2 3635   1.472   4.131   3.545
 1206SOL     OW 3636   0.973   4.614   3.434
 1206SOL    HW1 3637   1.019   4.530   3.405
 1206SOL    HW2 3638   0.917   4.648   3.359
 1207SOL     OW 3639   0.991   4.134   3.104
 1207SOL    HW1 3640   0.914   4.168   3.158
 1207SOL    HW2 3641   0.957   4.083   3.025
 1208SOL     OW 3642   1.041   4.425   2.291
 1208SOL    HW1 3643   1.067   4.421   2.387
 1208SOL    HW2 3644   0.956   4.374   2.277
 1209SOL     OW 3645   0.076   4.535   2.651
 1209SOL    HW1 3646   0.175   4.523   2.660
 1209SOL    HW2 3647   0.052   4.630   2.672
 1210SOL     OW 3648   0.865   4.072   2.057
 1210SOL    HW1 3649   0.924   4.135   2.008
 1210SOL    HW2 3650   0.884   3.978   2.028
 1211SOL     OW 3651   1.719   4.309   3.693
 1211SOL    HW1 3652   1.693   4.398   3.657
 1211SOL    HW2 3653   1.717   4.241   3.620
 1212SOL     OW 3654   0.550   3.920   2.747
 1212SOL    HW1 3655   0.545   3.915   2.847
 1212SOL    HW2 3656   0.552   4.016   2.718
 1213SOL     OW 3657   1.458   4.459   2.590
 1213SOL    HW1 3658   1.453   4.394   2.665
 1213SOL    HW2 3659   1.538   4.518   2.603
 1214SOL     OW 3660   0.202   4.009   3.360
 1214SOL    HW1 3661   0.122   4.069   3.347
 1214SOL    HW2 3662   0.192   3.960   3.446
 1215SOL     OW 3663   1.400   3.831   2.288
 1215SOL    HW1 3664   1.376   3.794   2.198
 1215SOL    HW2 3665   1.499   3.847   2.292
 1216SOL     OW 3666   0.382   4.424   2.342
 1216SOL    HW1 3667   0.427   4.334   2.339
 1216SOL    HW2 3668   0.288   4.413   2.375
 1217SOL     OW 3669   1.547   3.946   3.591
 1217SOL    HW1 3670   1.542   3.983   3.683
 1217SOL    HW2 3671   1.475   3.877   3.579
 1218SOL     OW 3672   0.614   3.846   1.979
 1218SOL    HW1 3673   0.712   3.824   1.986
 1218SOL    HW2 3674   0.583   3.829   1.886
 1219SOL     OW 3675   0.781   3.988   3.611
 1219SOL    HW1 3676   0.848   3.927   3.654
 1219SOL    HW2 3677   0.708   4.007   3.676
 1220SOL     OW 3678   1.351   4.314   3.295
 1220SOL    HW1 3679   1.379   4.271   3.380
 1220SOL    HW2 3680   1.376   4.410   3.296
 1221SOL     OW 3681   0.922   4.227   2.761
 1221SOL    HW1 3682   0.897   4.218   2.665
 1221SOL    HW2 3683   0.970   4.145   2.792
 1222SOL     OW 3684   0.539   3.788   2.374
 1222SOL    HW1 3685   0.458   3.789   2.432
 1222SOL    HW2 3686   0.542   3.871   2.319
 1223SOL     OW 3687   0.297   3.759   2.033
 1223SOL    HW1 3688   0.346   3.843   2.012
 1223SOL    HW2 3689   0.359   3.694   2.078
 1224SOL     OW 3690   0.935   3.960   2.342
 1224SOL    HW1 3691   0.887   4.001   2.264
 1224SOL    HW2 3692   1.034   3.958   2.323
 1225SOL     OW 3693   1.076   4.407   3.326
 1225SOL    HW1 3694   0.996   4.346   3.329
 1225SOL    HW2 3695   1.157   4.354   3.302
 1226SOL     OW 3696   1.032   4.273   1.878
 1226SOL    HW1 3697   0.991   4.355   1.839
 1226SOL    HW2 3698   1.096   4.299   1.951
 1227SOL     OW 3699   0.078   4.280   3.248
 1227SOL    HW1 3700   0.170   4.279   3.207
 1227SOL    HW2 3701   0.072   4.354   3.315
 1228SOL     OW 3702   0.561   3.946   3.009
 1228SOL    HW1 3703   0.599   3.862   3.046
 1228SOL    HW2 3704   0.473   3.965   3.053
 1229SOL     OW 3705   0.866   4.178   2.504
 1229SOL    HW1 3706   0.834   4.250   2.442
 1229SOL    HW2 3707   0.890   4.097   2.451
 1230SOL     OW 3708   1.017   3.763   2.615
 1230SOL    HW1 3709   0.945   3.768   2.546
 1230SOL    HW2 3710   0.993   3.694   2.684
 1231SOL     OW 3711   1.466   4.314   2.854
 1231SOL    HW1 3712   1.436   4.219   2.861
 1231SOL    HW2 3713   1.539   4.330   2.920
 1232SOL     OW 3714   1.857   4.557   2.239
 1232SOL    HW1 3715   1.899   4.493   2.303
 1232SOL    HW2 3716   1.819   4.506   2.161
 1233SOL     OW 3717   1.390   4.299   1.940
 1233SOL    HW1 3718   1.336   4.278   2.021
 1233SOL    HW2 3719   1.481   4.258   1.949
 1234SOL     OW 3720   0.527   3.980   2.190
 1234SOL    HW1 3721   0.554   3.921   2.115
 1234SOL    HW2 3722   0.527   4.075   2.159
 1235SOL     OW 3723   1.638   4.823   2.941
 1235SOL    HW1 3724   1.643   4.904   3.000
 1235SOL    HW2 3725   1.552   4.825   2.890
 1236SOL     OW 3726   0.915   3.813   3.264
 1236SOL    HW1 3727   0.940   3.793   3.169
 1236SOL    HW2 3728   0.987   3.869   3.306
 1237SOL     OW 3729   0.410   4.537   3.113
 1237SOL    HW1 3730   0.496   4.549   3.163
 1237SOL    HW2 3731   0.368   4.450   3.140
 1238SOL     OW 3732   1.274   4.110   3.124
 1238SOL    HW1 3733   1.295   4.184   3.188
 1238SOL    HW2 3734   1.185   4.127   3.081
 1239SOL     OW 3735   0.566   4.261   2.727
 1239SOL    HW1 3736   0.578   4.327   2.653
 1239SOL    HW2 3737   0.612   4.295   2.810
 1240SOL     OW 3738   1.582   4.363   2.334
 1240SOL    HW1 3739   1.551   4.424   2.407
 1240SOL    HW2 3740   1.632   4.415   2.265
 1241SOL     OW 3741   0.402   4.475   3.460
 1241SOL    HW1 3742   0.470   4.530   3.413
 1241SOL    HW2 3743   0.442   4.387   3.487
 1242SOL     OW 3744   1.587   4.503   3.532
 1242SOL    HW1 3745   1.495   4.541   3.527
 1242SOL    HW2 3746   1.647   4.550   3.467
 1243SOL     OW 3747   1.013   3.829   3.632
 1243SOL    HW1 3748   1.019   3.914   3.580
 1243SOL    HW2 3749   1.045   3.753   3.575
 1244SOL     OW 3750   0.504   3.774   3.602
 1244SOL    HW1 3751   0.462   3.717   3.532
 1244SOL    HW2 3752   0.438   3.843   3.634
 1245SOL     OW 3753   0.573   4.594   2.891
 1245SOL    HW1 3754   0.617   4.683   2.882
 1245SOL    HW2 3755   0.510   4.594   2.968
 1246SOL     OW 3756   1.360   4.586   2.907
 1246SOL    HW1 3757   1.285   4.586   2.841
 1246SOL    HW2 3758   1.397   4.494   2.916
 1247SOL     OW 3759   1.209   4.249   2.137
 1247SOL    HW1 3760   1.222   4.165   2.191
 1247SOL    HW2 3761   1.180   4.323   2.197
 1248SOL     OW 3762   0.307   3.937   3.093
 1248SOL    HW1 3763   0.284   3.974   3.183
 1248SOL    HW2 3764   0.277   3.842   3.087
 1249SOL     OW 3765   0.037   5.034   3.144
 1249SOL    HW1 3766   0.090   4.985   3.212
 1249SOL    HW2 3767   0.059   5.132   3.149
 1250SOL     OW 3768   0.732   4.358   2.926
 1250SOL    HW1 3769   0.791   4.332   2.850
 1250SOL    HW2 3770   0.704   4.454   2.915
 1251SOL     OW 3771   1.728   4.659   3.716
 1251SOL    HW1 3772   1.682   4.652   3.627
 1251SOL    HW2 3773   1.666   4.703   3.782
 1252SOL     OW 3774   0.307   3.787   2.480
 1252SOL    HW1 3775   0.296   3.881   2.513
 1252SOL    HW2 3776   0.302   3.724   2.557
 1253SOL     OW 3777   1.622   4.091   2.236
 1253SOL    HW1 3778   1.624   4.015   2.300
 1253SOL    HW2 3779   1.574   4.168   2.276
 1254SOL     OW 3780   1.023   4.490   2.828
 1254SOL    HW1 3781   1.038   4.511   2.924
 1254SOL    HW2 3782   0.993   4.395   2.819
 1255SOL     OW 3783   0.350   4.622   3.666
 1255SOL    HW1 3784   0.426   4.666   3.714
 1255SOL    HW2 3785   0.385   4.575   3.584
 1256SOL     OW 3786   1.540   3.998   1.987
 1256SOL    HW1 3787   1.479   3.923   2.010
 1256SOL    HW2 3788   1.562   4.050   2.070
 1257SOL     OW 3789   1.303   4.562   1.904
 1257SOL    HW1 3790   1.337   4.469   1.919
 1257SOL    HW2 3791   1.321   4.589   1.809
 1258SOL     OW 3792   0.319   4.534   2.811
 1258SOL    HW1 3793   0.412   4.570   2.816
 1258SOL    HW2 3794   0.313   4.449   2.863
 1259SOL     OW 3795   0.339   4.233   2.868
 1259SOL    HW1 3796   0.287   4.150   2.851
 1259SOL    HW2 3797   0.416   4.238   2.804
 1260SOL     OW 3798   1.138   4.104   3.540
 1260SOL    HW1 3799   1.093   4.167   3.604
 1260SOL    HW2 3800   1.231   4.135   3.523
 1261SOL     OW 3801   1.160   3.931   3.339
 1261SOL    HW1 3802   1.160   3.995   3.416
 1261SOL    HW2 3803   1.188   3.979   3.256
 1262SOL     OW 3804   1.002   4.520   3.100
 1262SOL    HW1 3805   1.043   4.488   3.186
 1262SOL    HW2 3806   0.906   4.493   3.097
 1263SOL     OW 3807   0.040   4.268   2.976
 1263SOL    HW1 3808   0.125   4.235   2.935
 1263SOL    HW2 3809   0.053   4.283   3.074
 1264SOL     OW 3810   0.189   4.244   3.584
 1264SOL    HW1 3811   0.248   4.204   3.514
 1264SOL    HW2 3812   0.131   4.315   3.543
 1265SOL     OW 3813   1.369   4.674   3.522
 1265SOL    HW1 3814   1.408   4.763   3.542
 1265SOL    HW2 3815   1.379   4.654   3.425
 1266SOL     OW 3816   0.815   4.296   2.187
 1266SOL    HW1 3817   0.822   4.207   2.141
 1266SOL    HW2 3818   0.721   4.330   2.179
 1267SOL     OW 3819   1.657   4.328   3.068
 1267SOL    HW1 3820   1.619   4.259   3.130
 1267SOL    HW2 3821   1.739   4.292   3.024
 1268SOL     OW 3822   0.671   4.188   3.131
 1268SOL    HW1 3823   0.637   4.099   3.101
 1268SOL    HW2 3824   0.697   4.242   3.051
 1269SOL     OW 3825   0.473   4.224   2.053
 1269SOL    HW1 3826   0.534   4.304   2.057
 1269SOL    HW2 3827   0.378   4.255   2.060
 1270SOL     OW 3828   0.159   4.861   3.328
 1270SOL    HW1 3829   0.181   4.800   3.404
 1270SOL    HW2 3830   0.169   4.812   3.242
 1271SOL     OW 3831   1.347   4.783   3.096
 1271SOL    HW1 3832   1.371   4.720   3.022
 1271SOL    HW2 3833   1.257   4.823   3.078
 1272SOL     OW 3834   1.302   4.579   2.171
 1272SOL    HW1 3835   1.216   4.548   2.213
 1272SOL    HW2 3836   1.298   4.565   2.072
 1273SOL     OW 3837   1.726   3.859   2.385
 1273SOL    HW1 3838   1.799   3.842   2.318
 1273SOL    HW2 3839   1.695   3.772   2.423
 1274SOL     OW 3840   1.280   4.651   2.534
 1274SOL    HW1 3841   1.340   4.570   2.536
 1274SOL    HW2 3842   1.320   4.720   2.474
 1275SOL     OW 3843   1.841   3.899   2.825
 1275SOL    HW1 3844   1.880   3.814   2.789
 1275SOL    HW2 3845   1.743   3.901   2.806
 1276SOL     OW 3846   0.263   4.050   2.582
 1276SOL    HW1 3847   0.184   4.101   2.548
 1276SOL    HW2 3848   0.254   4.035   2.680
 1277SOL     OW 3849   0.916   4.634   2.153
 1277SOL    HW1 3850   0.979   4.672   2.085
 1277SOL    HW2 3851   0.956   4.551   2.192
 1278SOL     OW 3852   1.014   3.960   2.833
 1278SOL    HW1 3853   1.006   3.924   2.740
 1278SOL    HW2 3854   1.012   3.884   2.898
 1279SOL     OW 3855   1.709   4.109   3.243
 1279SOL    HW1 3856   1.782   4.178   3.247
 1279SOL    HW2 3857   1.737   4.034   3.184
 1280SOL     OW 3858   0.105   4.737   3.588
 1280SOL    HW1 3859   0.028   4.704   3.642
 1280SOL    HW2 3860   0.190   4.707   3.630
 1281SOL     OW 3861   0.672   3.927   3.351
 1281SOL    HW1 3862   0.762   3.911   3.311
 1281SOL    HW2 3863   0.680   3.932   3.450
 1282SOL     OW 3864   0.075   4.069   1.895
 1282SOL    HW1 3865  -0.017   4.041   1.866
 1282SOL    HW2 3866   0.106   4.146   1.839
 1283SOL     OW 3867   1.440   4.580   3.260
 1283SOL    HW1 3868   1.383   4.632   3.197
 1283SOL    HW2 3869   1.536   4.592   3.236
 1284SOL     OW 3870   0.072   3.890   2.180
 1284SOL    HW1 3871   0.055   3.973   2.126
 1284SOL    HW2 3872   0.162   3.853   2.158
 1285SOL     OW 3873   0.613   4.566   3.293
 1285SOL    HW1 3874   0.669   4.647   3.276
 1285SOL    HW2 3875   0.672   4.486   3.296
 1286SOL     OW 3876   0.716   4.289   3.570
 1286SOL    HW1 3877   0.735   4.354   3.644
 1286SOL    HW2 3878   0.776   4.209   3.579
 1287SOL     OW 3879   1.674   4.607   3.116
 1287SOL    HW1 3880   1.647   4.518   3.079
 1287SOL    HW2 3881   1.675   4.675   3.043
 1288SOL     OW 3882   1.225   4.049   2.311
 1288SOL    HW1 3883   1.290   3.975   2.300
 1288SOL    HW2 3884   1.245   4.099   2.395
 1289SOL     OW 3885   0.594   4.469   2.514
 1289SOL    HW1 3886   0.644   4.554   2.495
 1289SOL    HW2 3887   0.506   4.471   2.466
 1290SOL     OW 3888   1.777   4.066   3.504
 1290SOL    HW1 3889   1.760   4.097   3.410
 1290SOL    HW2 3890   1.693   4.029   3.542
 1291SOL     OW 3891   1.730   4.658   3.379
 1291SOL    HW1 3892   1.768   4.749   3.394
 1291SOL    HW2 3893   1.722   4.641   3.280
 1292SOL     OW 3894   1.824   3.916   3.089
 1292SOL    HW1 3895   1.820   3.826   3.133
 1292SOL    HW2 3896   1.827   3.905   2.990
 1293SOL     OW 3897   0.428   4.148   2.382
 1293SOL    HW1 3898   0.458   4.076   2.320
 1293SOL    HW2 3899   0.389   4.108   2.465
 1294SOL     OW 3900   0.317   4.271   3.142
 1294SOL    HW1 3901   0.355   4.212   3.214
 1294SOL    HW2 3902   0.357   4.245   3.054
 1295SOL     OW 3903   1.424   3.938   2.974
 1295SOL    HW1 3904   1.476   3.873   3.029
 1295SOL    HW2 3905   1.375   4.001   3.035
 1296SOL     OW 3906   1.001   3.758   3.016
 1296SOL    HW1 3907   0.938   3.686   2.985
 1296SOL    HW2 3908   1.094   3.722   3.016
 1297SOL     OW 3909   1.352   3.776   2.030
 1297SOL    HW1 3910   1.387   3.735   1.946
 1297SOL    HW2 3911   1.262   3.738   2.050
 1298SOL     OW 3912   1.300   4.177   2.553
 1298SOL    HW1 3913   1.241   4.257   2.557
 1298SOL    HW2 3914   1.315   4.142   2.646
 1299SOL     OW 3915   1.593   3.945   2.744
 1299SOL    HW1 3916   1.509   3.944   2.798
 1299SOL    HW2 3917   1.595   4.028   2.688
 1300SOL     OW 3918   0.230   4.352   3.837
 1300SOL    HW1 3919   0.137   4.350   3.874
 1300SOL    HW2 3920   0.231   4.313   3.745
 1301SOL     OW 3921   0.019   4.092   4.371
 1301SOL    HW1 3922  -0.063   4.135   4.410
 1301SOL    HW2 3923  -0.009   4.019   4.308
 1302SOL     OW 3924   1.135   4.427   4.441
 1302SOL    HW1 3925   1.192   4.505   4.416
 1302SOL    HW2 3926   1.075   4.453   4.517
 1303SOL     OW 3927   1.755   4.331   3.955
 1303SOL    HW1 3928   1.743   4.318   3.856
 1303SOL    HW2 3929   1.725   4.250   4.004
 1304SOL     OW 3930   0.685   4.736   4.389
 1304SOL    HW1 3931   0.754   4.720   4.459
 1304SOL    HW2 3932   0.612   4.793   4.427
 1305SOL     OW 3933   1.603   4.171   4.461
 1305SOL    HW1 3934   1.529   4.217   4.411
 1305SOL    HW2 3935   1.654   4.239   4.514
 1306SOL     OW 3936   0.240   4.815   4.610
 1306SOL    HW1 3937   0.254   4.731   4.662
 1306SOL    HW2 3938   0.185   4.879   4.665
 1307SOL     OW 3939   0.122   4.367   4.287
 1307SOL    HW1 3940   0.077   4.279   4.304
 1307SOL    HW2 3941   0.121   4.421   4.371
 1308SOL     OW 3942   0.613   5.089   4.450
 1308SOL    HW1 3943   0.564   5.002   4.459
 1308SOL    HW2 3944   0.590   5.132   4.363
 1309SOL     OW 3945   0.809   3.728   4.226
 1309SOL    HW1 3946   0.849   3.819   4.217
 1309SOL    HW2 3947   0.709   3.736   4.232
 1310SOL     OW 3948   1.525   4.723   3.914
 1310SOL    HW1 3949   1.462   4.647   3.927
 1310SOL    HW2 3950   1.573   4.741   4.000
 1311SOL     OW 3951   0.598   4.453   3.994
 1311SOL    HW1 3952   0.622   4.522   3.926
 1311SOL    HW2 3953   0.520   4.486   4.048
 1312SOL     OW 3954   1.281   4.069   4.668
 1312SOL    HW1 3955   1.195   4.019   4.655
 1312SOL    HW2 3956   1.343   4.015   4.724
 1313SOL     OW 3957   1.041   4.425   4.153
 1313SOL    HW1 3958   1.067   4.421   4.249
 1313SOL    HW2 3959   0.956   4.374   4.139
 1314SOL     OW 3960   0.076   4.535   4.513
 1314SOL    HW1 3961   0.175   4.523   4.522
 1314SOL    HW2 3962   0.052   4.630   4.534
 1315SOL     OW 3963   0.865   4.072   3.919
 1315SOL    HW1 3964   0.924   4.135   3.870
 1315SOL    HW2 3965   0.884   3.978   3.890
 1316SOL     OW 3966   1.458   4.459   4.452
 1316SOL    HW1 3967   1.453   4.394   4.527
 1316SOL    HW2 3968   1.538   4.518   4.465
 1317SOL     OW 3969   1.400   3.831   4.150
 1317SOL    HW1 3970   1.376   3.794   4.060
 1317SOL    HW2 3971   1.499   3.847   4.154
 1318SOL     OW 3972   0.382   4.424   4.204
 1318SOL    HW1 3973   0.427   4.334   4.201
 1318SOL    HW2 3974   0.288   4.413   4.237
 1319SOL     OW 3975   0.614   3.846   3.841
 1319SOL    HW1 3976   0.712   3.824   3.848
 1319SOL    HW2 3977   0.583   3.829   3.748
 1320SOL     OW 3978   0.922   4.227   4.623
 1320SOL    HW1 3979   0.897   4.218   4.527
 1320SOL    HW2 3980   0.970   4.145   4.654
 1321SOL     OW 3981   0.539   3.788   4.236
 1321SOL    HW1 3982   0.458   3.789   4.294
 1321SOL    HW2 3983   0.542   3.871   4.181
 1322SOL     OW 3984   0.297   3.759   3.895
 1322SOL    HW1 3985   0.346   3.843   3.874
 1322SOL    HW2 3986   0.359   3.694   3.940
 1323SOL     OW 3987   0.935   3.960   4.204
 1323SOL    HW1 3988   0.887   4.001   4.126
 1323SOL    HW2 3989   1.034   3.958   4.185
 1324SOL     OW 3990   1.032   4.273   3.740
 1324SOL    HW1 3991   0.991   4.355   3.701
 1324SOL    HW2 3992   1.096   4.299   3.813
 1325SOL     OW 3993   0.866   4.178   4.366
 1325SOL    HW1 3994   0.834   4.250   4.304
 1325SOL    HW2 3995   0.890   4.097   4.313
 1326SOL     OW 3996   1.017   3.763   4.477
 1326SOL    HW1 3997   0.945   3.768   4.408
 1326SOL    HW2 3998   0.993   3.694   4.546
 1327SOL     OW 3999   1.857   4.557   4.101
 1327SOL    HW1 4000   1.899   4.493   4.165
 1327SOL    HW2 4001   1.819   4.506   4.023
 1328SOL     OW 4002   1.390   4.299   3.802
 1328SOL    HW1 4003   1.336   4.278   3.883
 1328SOL    HW2 4004   1.481   4.258   3.811
 1329SOL     OW 4005   0.527   3.980   4.052
 1329SOL    HW1 4006   0.554   3.921   3.977
 1329SOL    HW2 4007   0.527   4.075   4.021
 1330SOL     OW 4008   1.111   4.919   4.824
 1330SOL    HW1 4009   1.071   4.963   4.905
 1330SOL    HW2 4010   1.070   4.956   4.741
 1331SOL     OW 4011   0.566   4.261   4.589
 1331SOL    HW1 4012   0.578   4.327   4.515
 1331SOL    HW2 4013   0.612   4.295   4.672
 1332SOL     OW 4014   1.582   4.363   4.196
 1332SOL    HW1 4015   1.551   4.424   4.269
 1332SOL    HW2 4016   1.632   4.415   4.127
 1333SOL     OW 4017   0.573   4.594   4.753
 1333SOL    HW1 4018   0.617   4.683   4.744
 1333SOL    HW2 4019   0.510   4.594   4.830
 1334SOL     OW 4020   1.209   4.249   3.999
 1334SOL    HW1 4021   1.222   4.165   4.053
 1334SOL    HW2 4022   1.180   4.323   4.059
 1335SOL     OW 4023   0.732   4.358   4.788
 1335SOL    HW1 4024   0.791   4.332   4.712
 1335SOL    HW2 4025   0.704   4.454   4.777
 1336SOL     OW 4026   0.307   3.787   4.342
 1336SOL    HW1 4027   0.296   3.881   4.375
 1336SOL    HW2 4028   0.302   3.724   4.419
 1337SOL     OW 4029   1.622   4.091   4.098
 1337SOL    HW1 4030   1.624   4.015   4.162
 1337SOL    HW2 4031   1.574   4.168   4.138
 1338SOL     OW 4032   1.540   3.998   3.849
 1338SOL    HW1 4033   1.479   3.923   3.872
 1338SOL    HW2 4034   1.562   4.050   3.932
 1339SOL     OW 4035   1.303   4.562   3.766
 1339SOL    HW1 4036   1.337   4.469   3.781
 1339SOL    HW2 4037   1.321   4.589   3.671
 1340SOL     OW 4038   0.319   4.534   4.673
 1340SOL    HW1 4039   0.412   4.570   4.678
 1340SOL    HW2 4040   0.313   4.449   4.725
 1341SOL     OW 4041   0.815   4.296   4.049
 1341SOL    HW1 4042   0.822   4.207   4.003
 1341SOL    HW2 4043   0.721   4.330   4.041
 1342SOL     OW 4044   0.473   4.224   3.915
 1342SOL    HW1 4045   0.534   4.304   3.919
 1342SOL    HW2 4046   0.378   4.255   3.922
 1343SOL     OW 4047   1.302   4.579   4.033
 1343SOL    HW1 4048   1.216   4.548   4.075
 1343SOL    HW2 4049   1.298   4.565   3.934
 1344SOL     OW 4050   1.726   3.859   4.247
 1344SOL    HW1 4051   1.799   3.842   4.180
 1344SOL    HW2 4052   1.695   3.772   4.285
 1345SOL     OW 4053   1.280   4.651   4.396
 1345SOL    HW1 4054   1.340   4.570   4.398
 1345SOL    HW2 4055   1.320   4.720   4.336
 1346SOL     OW 4056   1.841   3.899   4.687
 1346SOL    HW1 4057   1.880   3.814   4.651
 1346SOL    HW2 4058   1.743   3.901   4.668
 1347SOL     OW 4059   0.263   4.050   4.444
 1347SOL    HW1 4060   0.184   4.101   4.410
 1347SOL    HW2 4061   0.254   4.035   4.542
 1348SOL     OW 4062   0.916   4.634   4.015
 1348SOL    HW1 4063   0.979   4.672   3.947
 1348SOL    HW2 4064   0.956   4.551   4.054
 1349SOL     OW 4065   0.075   4.069   3.757
 1349SOL    HW1 4066  -0.017   4.041   3.728
 1349SOL    HW2 4067   0.106   4.146   3.701
 1350SOL     OW 4068   0.072   3.890   4.042
 1350SOL    HW1 4069   0.055   3.973   3.988
 1350SOL    HW2 4070   0.162   3.853   4.020
 1351SOL     OW 4071   1.674   4.607   4.978
 1351SOL    HW1 4072   1.647   4.518   4.941
 1351SOL    HW2 4073   1.675   4.675   4.905
 1352SOL     OW 4074   1.225   4.049   4.173
 1352SOL    HW1 4075   1.290   3.975   4.162
 1352SOL    HW2 4076   1.245   4.099   4.257
 1353SOL     OW 4077   0.594   4.469   4.376
 1353SOL    HW1 4078   0.644   4.554   4.357
 1353SOL    HW2 4079   0.506   4.471   4.328
 1354SOL     OW 4080   1.824   3.916   4.951
 1354SOL    HW1 4081   1.820   3.826   4.995
 1354SOL    HW2 4082   1.827   3.905   4.852
 1355SOL     OW 4083   0.428   4.148   4.244
 1355SOL    HW1 4084   0.458   4.076   4.182
 1355SOL    HW2 4085   0.389   4.108   4.327
 1356SOL     OW 4086   1.352   3.776   3.892
 1356SOL    HW1 4087   1.387   3.735   3.808
 1356SOL    HW2 4088   1.262   3.738   3.912
 1357SOL     OW 4089   1.300   4.177   4.415
 1357SOL    HW1 4090   1.241   4.257   4.419
 1357SOL    HW2 4091   1.315   4.142   4.508
 1358SOL     OW 4092   1.593   3.945   4.606
 1358SOL    HW1 4093   1.509   3.944   4.660
 1358SOL    HW2 4094   1.595   4.028   4.550
 1359SOL     OW 4095   2.092   0.628   0.113
 1359SOL    HW1 4096   1.999   0.626   0.150
 1359SOL    HW2 4097   2.093   0.589   0.021
 1360SOL     OW 4098   2.087   0.275   0.996
 1360SOL    HW1 4099   2.122   0.258   1.088
 1360SOL    HW2 4100   1.999   0.230   0.984
 1361SOL     OW 4101   1.881   0.368   0.647
 1361SOL    HW1 4102   1.799   0.411   0.686
 1361SOL    HW2 4103   1.853   0.295   0.584
 1362SOL     OW 4104   2.431   1.275   1.165
 1362SOL    HW1 4105   2.338   1.268   1.128
 1362SOL    HW2 4106   2.442   1.364   1.209
 1363SOL     OW 4107   3.417   1.511   0.703
 1363SOL    HW1 4108   3.360   1.495   0.784
 1363SOL    HW2 4109   3.358   1.521   0.623
 1364SOL     OW 4110   2.997   0.703   0.717
 1364SOL    HW1 4111   3.054   0.781   0.692
 1364SOL    HW2 4112   2.937   0.729   0.793
 1365SOL     OW 4113   3.617   0.607   0.231
 1365SOL    HW1 4114   3.605   0.594   0.132
 1365SOL    HW2 4115   3.587   0.526   0.280
 1366SOL     OW 4116   2.630   1.144   1.023
 1366SOL    HW1 4117   2.552   1.161   1.083
 1366SOL    HW2 4118   2.664   1.231   0.987
 1367SOL     OW 4119   2.712   0.798   1.823
 1367SOL    HW1 4120   2.708   0.874   1.888
 1367SOL    HW2 4121   2.734   0.834   1.732
 1368SOL     OW 4122   2.547   1.012   0.665
 1368SOL    HW1 4123   2.616   0.996   0.735
 1368SOL    HW2 4124   2.474   1.069   0.703
 1369SOL     OW 4125   2.548   1.161   1.803
 1369SOL    HW1 4126   2.608   1.240   1.817
 1369SOL    HW2 4127   2.462   1.192   1.762
 1370SOL     OW 4128   2.197   1.435   1.061
 1370SOL    HW1 4129   2.119   1.404   1.008
 1370SOL    HW2 4130   2.255   1.493   1.004
 1371SOL     OW 4131   3.322   1.505   1.339
 1371SOL    HW1 4132   3.346   1.599   1.365
 1371SOL    HW2 4133   3.306   1.451   1.421
 1372SOL     OW 4134   2.300   0.392   1.499
 1372SOL    HW1 4135   2.382   0.336   1.508
 1372SOL    HW2 4136   2.219   0.334   1.503
 1373SOL     OW 4137   3.465   0.447   0.737
 1373SOL    HW1 4138   3.391   0.493   0.687
 1373SOL    HW2 4139   3.516   0.515   0.790
 1374SOL     OW 4140   2.093   1.713   0.483
 1374SOL    HW1 4141   2.127   1.790   0.537
 1374SOL    HW2 4142   2.137   1.713   0.393
 1375SOL     OW 4143   2.989   1.341   1.690
 1375SOL    HW1 4144   3.036   1.341   1.778
 1375SOL    HW2 4145   2.941   1.254   1.679
 1376SOL     OW 4146   2.092   1.434   0.538
 1376SOL    HW1 4147   2.066   1.530   0.538
 1376SOL    HW2 4148   2.021   1.380   0.583
 1377SOL     OW 4149   2.102   1.091   0.886
 1377SOL    HW1 4150   2.116   1.007   0.938
 1377SOL    HW2 4151   2.047   1.155   0.941
 1378SOL     OW 4152   2.482   1.786   1.439
 1378SOL    HW1 4153   2.390   1.769   1.474
 1378SOL    HW2 4154   2.510   1.878   1.465
 1379SOL     OW 4155   2.468   0.964   0.123
 1379SOL    HW1 4156   2.475   1.048   0.069
 1379SOL    HW2 4157   2.514   0.977   0.211
 1380SOL     OW 4158   3.456   0.114   1.480
 1380SOL    HW1 4159   3.438   0.181   1.408
 1380SOL    HW2 4160   3.453   0.160   1.569
 1381SOL     OW 4161   1.984   0.643   0.563
 1381SOL    HW1 4162   1.939   0.555   0.580
 1381SOL    HW2 4163   1.983   0.697   0.647
 1382SOL     OW 4164   3.704   1.767   0.359
 1382SOL    HW1 4165   3.758   1.738   0.439
 1382SOL    HW2 4166   3.734   1.857   0.330
 1383SOL     OW 4167   3.551   0.922   0.612
 1383SOL    HW1 4168   3.646   0.893   0.620
 1383SOL    HW2 4169   3.543   0.987   0.537
 1384SOL     OW 4170   3.503   1.108   0.432
 1384SOL    HW1 4171   3.589   1.110   0.380
 1384SOL    HW2 4172   3.517   1.155   0.520
 1385SOL     OW 4173   1.975   0.737   1.597
 1385SOL    HW1 4174   2.063   0.724   1.642
 1385SOL    HW2 4175   1.962   0.834   1.575
 1386SOL     OW 4176   2.475   1.365   0.726
 1386SOL    HW1 4177   2.426   1.278   0.735
 1386SOL    HW2 4178   2.452   1.408   0.639
 1387SOL     OW 4179   3.155   1.228   1.423
 1387SOL    HW1 4180   3.192   1.155   1.365
 1387SOL    HW2 4181   3.207   1.233   1.508
 1388SOL     OW 4182   2.671   0.004   0.502
 1388SOL    HW1 4183   2.711   0.095   0.493
 1388SOL    HW2 4184   2.571   0.012   0.508
 1389SOL     OW 4185   2.059   0.976   1.264
 1389SOL    HW1 4186   2.148   0.931   1.250
 1389SOL    HW2 4187   1.986   0.911   1.245
 1390SOL     OW 4188   3.387   0.999   0.190
 1390SOL    HW1 4189   3.324   0.923   0.203
 1390SOL    HW2 4190   3.435   1.017   0.276
 1391SOL     OW 4191   3.049   1.792   1.616
 1391SOL    HW1 4192   3.073   1.852   1.540
 1391SOL    HW2 4193   3.056   1.697   1.586
 1392SOL     OW 4194   2.179   0.251   1.801
 1392SOL    HW1 4195   2.250   0.322   1.807
 1392SOL    HW2 4196   2.091   0.290   1.829
 1393SOL     OW 4197   3.328   1.417   0.953
 1393SOL    HW1 4198   3.269   1.423   1.033
 1393SOL    HW2 4199   3.313   1.329   0.907
 1394SOL     OW 4200   3.529   1.714   0.572
 1394SOL    HW1 4201   3.488   1.691   0.484
 1394SOL    HW2 4202   3.511   1.640   0.637
 1395SOL     OW 4203   2.460   0.729   0.270
 1395SOL    HW1 4204   2.484   0.798   0.202
 1395SOL    HW2 4205   2.382   0.762   0.324
 1396SOL     OW 4206   3.143   0.345   0.944
 1396SOL    HW1 4207   3.057   0.295   0.931
 1396SOL    HW2 4208   3.205   0.291   1.000
 1397SOL     OW 4209   3.438   1.662   0.307
 1397SOL    HW1 4210   3.527   1.708   0.310
 1397SOL    HW2 4211   3.417   1.638   0.212
 1398SOL     OW 4212   2.669   0.605   1.465
 1398SOL    HW1 4213   2.622   0.602   1.554
 1398SOL    HW2 4214   2.618   0.550   1.399
 1399SOL     OW 4215   3.256   0.469   1.674
 1399SOL    HW1 4216   3.236   0.512   1.762
 1399SOL    HW2 4217   3.334   0.407   1.683
 1400SOL     OW 4218   2.835   0.890   1.572
 1400SOL    HW1 4219   2.881   0.806   1.543
 1400SOL    HW2 4220   2.779   0.924   1.497
 1401SOL     OW 4221   2.853   0.410   1.242
 1401SOL    HW1 4222   2.776   0.444   1.296
 1401SOL    HW2 4223   2.819   0.359   1.163
 1402SOL     OW 4224   2.903   0.701   0.429
 1402SOL    HW1 4225   2.929   0.697   0.525
 1402SOL    HW2 4226   2.818   0.650   0.415
 1403SOL     OW 4227   1.938   0.811   0.789
 1403SOL    HW1 4228   2.037   0.799   0.798
 1403SOL    HW2 4229   1.914   0.906   0.810
 1404SOL     OW 4230   1.992   1.821   1.571
 1404SOL    HW1 4231   1.982   1.806   1.670
 1404SOL    HW2 4232   1.906   1.857   1.535
 1405SOL     OW 4233   2.727   0.348   0.195
 1405SOL    HW1 4234   2.786   0.411   0.146
 1405SOL    HW2 4235   2.746   0.254   0.166
 1406SOL     OW 4236   3.581   0.585   1.831
 1406SOL    HW1 4237   3.555   0.674   1.795
 1406SOL    HW2 4238   3.579   0.517   1.758
 1407SOL     OW 4239   3.224   1.144   0.545
 1407SOL    HW1 4240   3.307   1.115   0.497
 1407SOL    HW2 4241   3.175   1.211   0.489
 1408SOL     OW 4242   2.412   0.196   0.885
 1408SOL    HW1 4243   2.407   0.191   0.985
 1408SOL    HW2 4244   2.414   0.292   0.856
 1409SOL     OW 4245   2.870   1.456   0.477
 1409SOL    HW1 4246   2.824   1.528   0.425
 1409SOL    HW2 4247   2.866   1.476   0.575
 1410SOL     OW 4248   2.213   1.801   0.853
 1410SOL    HW1 4249   2.263   1.715   0.859
 1410SOL    HW2 4250   2.278   1.878   0.850
 1411SOL     OW 4251   3.657   1.066   0.873
 1411SOL    HW1 4252   3.595   1.051   0.797
 1411SOL    HW2 4253   3.605   1.077   0.958
 1412SOL     OW 4254   3.089   1.550   1.506
 1412SOL    HW1 4255   3.095   1.473   1.570
 1412SOL    HW2 4256   3.037   1.524   1.426
 1413SOL     OW 4257   2.183   0.943   0.242
 1413SOL    HW1 4258   2.265   0.982   0.200
 1413SOL    HW2 4259   2.156   0.861   0.193
 1414SOL     OW 4260   3.320   0.735   0.728
 1414SOL    HW1 4261   3.315   0.670   0.803
 1414SOL    HW2 4262   3.400   0.794   0.741
 1415SOL     OW 4263   2.323   1.266   1.727
 1415SOL    HW1 4264   2.273   1.267   1.641
 1415SOL    HW2 4265   2.260   1.248   1.803
 1416SOL     OW 4266   2.973   1.776   0.237
 1416SOL    HW1 4267   2.913   1.714   0.287
 1416SOL    HW2 4268   3.004   1.732   0.152
 1417SOL     OW 4269   2.064   0.285   1.498
 1417SOL    HW1 4270   1.984   0.345   1.485
 1417SOL    HW2 4271   2.054   0.236   1.584
 1418SOL     OW 4272   3.494   1.377   0.081
 1418SOL    HW1 4273   3.462   1.471   0.071
 1418SOL    HW2 4274   3.418   1.314   0.069
 1419SOL     OW 4275   2.326   1.743   0.323
 1419SOL    HW1 4276   2.359   1.782   0.409
 1419SOL    HW2 4277   2.402   1.736   0.258
 1420SOL     OW 4278   3.262   0.107   0.426
 1420SOL    HW1 4279   3.238   0.070   0.336
 1420SOL    HW2 4280   3.361   0.123   0.430
 1421SOL     OW 4281   2.111   1.785   1.241
 1421SOL    HW1 4282   2.168   1.720   1.291
 1421SOL    HW2 4283   2.095   1.752   1.148
 1422SOL     OW 4284   2.802   1.698   0.904
 1422SOL    HW1 4285   2.882   1.641   0.925
 1422SOL    HW2 4286   2.753   1.658   0.827
 1423SOL     OW 4287   2.244   0.700   0.480
 1423SOL    HW1 4288   2.289   0.610   0.477
 1423SOL    HW2 4289   2.150   0.689   0.513
 1424SOL     OW 4290   3.409   0.222   1.729
 1424SOL    HW1 4291   3.404   0.259   1.821
 1424SOL    HW2 4292   3.337   0.153   1.717
 1425SOL     OW 4293   2.476   0.122   0.117
 1425SOL    HW1 4294   2.574   0.100   0.124
 1425SOL    HW2 4295   2.445   0.105   0.024
 1426SOL     OW 4296   2.643   0.264   1.749
 1426SOL    HW1 4297   2.710   0.203   1.792
 1426SOL    HW2 4298   2.570   0.283   1.814
 1427SOL     OW 4299   2.750   1.514   1.195
 1427SOL    HW1 4300   2.727   1.489   1.101
 1427SOL    HW2 4301   2.811   1.445   1.234
 1428SOL     OW 4302   3.213   0.590   1.433
 1428SOL    HW1 4303   3.241   0.547   1.518
 1428SOL    HW2 4304   3.238   0.686   1.434
 1429SOL     OW 4305   2.665   1.402   0.924
 1429SOL    HW1 4306   2.755   1.416   0.882
 1429SOL    HW2 4307   2.594   1.404   0.853
 1430SOL     OW 4308   2.784   0.503   0.899
 1430SOL    HW1 4309   2.759   0.494   0.803
 1430SOL    HW2 4310   2.832   0.421   0.930
 1431SOL     OW 4311   2.401   0.064   0.512
 1431SOL    HW1 4312   2.320   0.065   0.570
 1431SOL    HW2 4313   2.404   0.147   0.457
 1432SOL     OW 4314   3.296   1.188   0.041
 1432SOL    HW1 4315   3.328   1.112   0.098
 1432SOL    HW2 4316   3.204   1.215   0.071
 1433SOL     OW 4317   2.159   0.035   0.171
 1433SOL    HW1 4318   2.208   0.119   0.150
 1433SOL    HW2 4319   2.221  -0.030   0.216
 1434SOL     OW 4320   2.797   0.236   0.480
 1434SOL    HW1 4321   2.749   0.277   0.402
 1434SOL    HW2 4322   2.896   0.234   0.461
 1435SOL     OW 4323   2.938   0.683   1.464
 1435SOL    HW1 4324   2.858   0.622   1.467
 1435SOL    HW2 4325   3.019   0.630   1.440
 1436SOL     OW 4326   3.089   1.570   0.793
 1436SOL    HW1 4327   3.110   1.644   0.728
 1436SOL    HW2 4328   3.157   1.570   0.866
 1437SOL     OW 4329   2.321   1.152   0.741
 1437SOL    HW1 4330   2.250   1.125   0.806
 1437SOL    HW2 4331   2.295   1.124   0.648
 1438SOL     OW 4332   3.133   1.797   0.591
 1438SOL    HW1 4333   3.177   1.861   0.527
 1438SOL    HW2 4334   3.083   1.849   0.661
 1439SOL     OW 4335   2.894   0.549   0.016
 1439SOL    HW1 4336   2.853   0.631  -0.023
 1439SOL    HW2 4337   2.958   0.575   0.089
 1440SOL     OW 4338   1.940   0.556   1.386
 1440SOL    HW1 4339   2.032   0.555   1.345
 1440SOL    HW2 4340   1.934   0.630   1.453
 1441SOL     OW 4341   2.423   0.222   1.147
 1441SOL    HW1 4342   2.461   0.138   1.184
 1441SOL    HW2 4343   2.335   0.241   1.191
 1442SOL     OW 4344   2.728   0.454   0.642
 1442SOL    HW1 4345   2.696   0.526   0.580
 1442SOL    HW2 4346   2.752   0.373   0.589
 1443SOL     OW 4347   2.879   0.039   0.753
 1443SOL    HW1 4348   2.807   0.044   0.684
 1443SOL    HW2 4349   2.855  -0.030   0.822
 1444SOL     OW 4350   3.291   1.173   0.867
 1444SOL    HW1 4351   3.236   1.089   0.860
 1444SOL    HW2 4352   3.317   1.202   0.775
 1445SOL     OW 4353   3.328   0.590   0.992
 1445SOL    HW1 4354   3.298   0.495   0.999
 1445SOL    HW2 4355   3.401   0.606   1.058
 1446SOL     OW 4356   3.719   0.833   0.377
 1446SOL    HW1 4357   3.761   0.769   0.441
 1446SOL    HW2 4358   3.681   0.782   0.299
 1447SOL     OW 4359   2.350   1.385   0.174
 1447SOL    HW1 4360   2.263   1.370   0.221
 1447SOL    HW2 4361   2.333   1.411   0.079
 1448SOL     OW 4362   3.526   1.280   0.657
 1448SOL    HW1 4363   3.625   1.288   0.671
 1448SOL    HW2 4364   3.481   1.364   0.688
 1449SOL     OW 4365   3.252   0.575   0.078
 1449SOL    HW1 4366   3.198   0.554   0.159
 1449SOL    HW2 4367   3.343   0.534   0.087
 1450SOL     OW 4368   2.389   0.256   0.328
 1450SOL    HW1 4369   2.416   0.197   0.253
 1450SOL    HW2 4370   2.389   0.351   0.297
 1451SOL     OW 4371   3.616   1.223   1.588
 1451SOL    HW1 4372   3.707   1.184   1.575
 1451SOL    HW2 4373   3.624   1.319   1.612
 1452SOL     OW 4374   2.926   1.347   1.340
 1452SOL    HW1 4375   2.846   1.324   1.395
 1452SOL    HW2 4376   3.009   1.321   1.389
 1453SOL     OW 4377   3.454   1.629   1.625
 1453SOL    HW1 4378   3.481   1.663   1.535
 1453SOL    HW2 4379   3.533   1.591   1.671
 1454SOL     OW 4380   2.973   1.195   1.100
 1454SOL    HW1 4381   2.933   1.239   1.181
 1454SOL    HW2 4382   2.932   1.232   1.017
 1455SOL     OW 4383   3.500   1.099   1.079
 1455SOL    HW1 4384   3.505   1.180   1.138
 1455SOL    HW2 4385   3.414   1.101   1.028
 1456SOL     OW 4386   2.777   0.089   1.402
 1456SOL    HW1 4387   2.802   0.069   1.307
 1456SOL    HW2 4388   2.849   0.145   1.444
 1457SOL     OW 4389   2.842   1.116   1.719
 1457SOL    HW1 4390   2.743   1.122   1.729
 1457SOL    HW2 4391   2.865   1.036   1.663
 1458SOL     OW 4392   2.567   1.050   0.368
 1458SOL    HW1 4393   2.553   1.057   0.467
 1458SOL    HW2 4394   2.651   0.999   0.350
 1459SOL     OW 4395   2.272   0.813   1.251
 1459SOL    HW1 4396   2.358   0.825   1.301
 1459SOL    HW2 4397   2.230   0.726   1.278
 1460SOL     OW 4398   3.136   0.386   1.262
 1460SOL    HW1 4399   3.157   0.460   1.326
 1460SOL    HW2 4400   3.047   0.403   1.219
 1461SOL     OW 4401   1.926   1.564   1.331
 1461SOL    HW1 4402   1.880   1.646   1.297
 1461SOL    HW2 4403   2.024   1.583   1.340
 1462SOL     OW 4404   2.229   1.100   0.501
 1462SOL    HW1 4405   2.222   1.183   0.445
 1462SOL    HW2 4406   2.233   1.020   0.441
 1463SOL     OW 4407   2.428   0.537   0.865
 1463SOL    HW1 4408   2.440   0.603   0.791
 1463SOL    HW2 4409   2.474   0.571   0.948
 1464SOL     OW 4410   3.114   1.348   0.388
 1464SOL    HW1 4411   3.164   1.425   0.428
 1464SOL    HW2 4412   3.019   1.350   0.420
 1465SOL     OW 4413   3.134   1.445   1.142
 1465SOL    HW1 4414   3.181   1.458   1.229
 1465SOL    HW2 4415   3.068   1.371   1.151
 1466SOL     OW 4416   3.444   0.639   0.472
 1466SOL    HW1 4417   3.413   0.700   0.545
 1466SOL    HW2 4418   3.494   0.691   0.403
 1467SOL     OW 4419   2.216   1.510   1.329
 1467SOL    HW1 4420   2.195   1.466   1.242
 1467SOL    HW2 4421   2.313   1.536   1.332
 1468SOL     OW 4422   2.264   0.751   1.598
 1468SOL    HW1 4423   2.332   0.806   1.551
 1468SOL    HW2 4424   2.304   0.663   1.625
 1469SOL     OW 4425   3.449   0.779   1.670
 1469SOL    HW1 4426   3.357   0.817   1.665
 1469SOL    HW2 4427   3.509   0.826   1.605
 1470SOL     OW 4428   2.875   0.105   1.770
 1470SOL    HW1 4429   2.881   0.190   1.718
 1470SOL    HW2 4430   2.907   0.029   1.713
 1471SOL     OW 4431   2.366   0.050   1.740
 1471SOL    HW1 4432   2.324  -0.007   1.670
 1471SOL    HW2 4433   2.300   0.119   1.772
 1472SOL     OW 4434   2.435   0.870   1.029
 1472SOL    HW1 4435   2.479   0.959   1.020
 1472SOL    HW2 4436   2.372   0.870   1.106
 1473SOL     OW 4437   3.222   0.862   1.045
 1473SOL    HW1 4438   3.147   0.862   0.979
 1473SOL    HW2 4439   3.259   0.770   1.054
 1474SOL     OW 4440   3.071   0.525   0.275
 1474SOL    HW1 4441   3.084   0.441   0.329
 1474SOL    HW2 4442   3.042   0.599   0.335
 1475SOL     OW 4443   2.169   0.213   1.231
 1475SOL    HW1 4444   2.146   0.250   1.321
 1475SOL    HW2 4445   2.139   0.118   1.225
 1476SOL     OW 4446   1.899   1.310   1.282
 1476SOL    HW1 4447   1.952   1.261   1.350
 1476SOL    HW2 4448   1.921   1.408   1.287
 1477SOL     OW 4449   2.594   0.634   1.064
 1477SOL    HW1 4450   2.653   0.608   0.988
 1477SOL    HW2 4451   2.566   0.730   1.053
 1478SOL     OW 4452   3.590   0.935   1.854
 1478SOL    HW1 4453   3.544   0.928   1.765
 1478SOL    HW2 4454   3.528   0.979   1.920
 1479SOL     OW 4455   2.169   0.063   0.618
 1479SOL    HW1 4456   2.158   0.157   0.651
 1479SOL    HW2 4457   2.164   0.000   0.695
 1480SOL     OW 4458   3.484   0.367   0.374
 1480SOL    HW1 4459   3.486   0.291   0.438
 1480SOL    HW2 4460   3.436   0.444   0.414
 1481SOL     OW 4461   2.885   0.766   0.966
 1481SOL    HW1 4462   2.900   0.787   1.062
 1481SOL    HW2 4463   2.855   0.671   0.957
 1482SOL     OW 4464   2.842   1.573   1.700
 1482SOL    HW1 4465   2.822   1.617   1.612
 1482SOL    HW2 4466   2.881   1.482   1.684
 1483SOL     OW 4467   3.721   1.518   1.605
 1483SOL    HW1 4468   3.735   1.545   1.510
 1483SOL    HW2 4469   3.804   1.540   1.658
 1484SOL     OW 4470   2.212   0.898   1.804
 1484SOL    HW1 4471   2.288   0.942   1.852
 1484SOL    HW2 4472   2.247   0.851   1.722
 1485SOL     OW 4473   3.402   0.274   0.125
 1485SOL    HW1 4474   3.341   0.199   0.148
 1485SOL    HW2 4475   3.424   0.326   0.208
 1486SOL     OW 4476   3.165   0.838   0.042
 1486SOL    HW1 4477   3.199   0.745   0.057
 1486SOL    HW2 4478   3.183   0.865  -0.053
 1487SOL     OW 4479   2.930   1.333   0.849
 1487SOL    HW1 4480   2.937   1.249   0.794
 1487SOL    HW2 4481   2.992   1.402   0.813
 1488SOL     OW 4482   2.181   0.810   0.949
 1488SOL    HW1 4483   2.274   0.846   0.954
 1488SOL    HW2 4484   2.175   0.725   1.001
 1489SOL     OW 4485   2.201   0.509   1.006
 1489SOL    HW1 4486   2.149   0.426   0.989
 1489SOL    HW2 4487   2.278   0.514   0.942
 1490SOL     OW 4488   3.000   0.380   1.678
 1490SOL    HW1 4489   2.955   0.443   1.742
 1490SOL    HW2 4490   3.093   0.411   1.661
 1491SOL     OW 4491   3.022   0.207   1.477
 1491SOL    HW1 4492   3.022   0.271   1.554
 1491SOL    HW2 4493   3.050   0.255   1.394
 1492SOL     OW 4494   1.870   1.326   0.200
 1492SOL    HW1 4495   1.777   1.347   0.169
 1492SOL    HW2 4496   1.880   1.227   0.213
 1493SOL     OW 4497   1.950   1.801   0.927
 1493SOL    HW1 4498   1.908   1.715   0.900
 1493SOL    HW2 4499   2.044   1.804   0.893
 1494SOL     OW 4500   2.366   1.568   0.910
 1494SOL    HW1 4501   2.432   1.642   0.919
 1494SOL    HW2 4502   2.410   1.489   0.868
 1495SOL     OW 4503   2.864   0.796   1.238
 1495SOL    HW1 4504   2.905   0.764   1.324
 1495SOL    HW2 4505   2.768   0.769   1.235
 1496SOL     OW 4506   1.902   0.544   1.114
 1496SOL    HW1 4507   1.987   0.511   1.073
 1496SOL    HW2 4508   1.915   0.559   1.212
 1497SOL     OW 4509   2.051   0.520   1.722
 1497SOL    HW1 4510   2.110   0.480   1.652
 1497SOL    HW2 4511   1.993   0.591   1.681
 1498SOL     OW 4512   3.231   0.950   1.660
 1498SOL    HW1 4513   3.270   1.039   1.680
 1498SOL    HW2 4514   3.241   0.930   1.563
 1499SOL     OW 4515   2.677   0.572   0.325
 1499SOL    HW1 4516   2.684   0.483   0.279
 1499SOL    HW2 4517   2.583   0.606   0.317
 1500SOL     OW 4518   3.519   0.604   1.206
 1500SOL    HW1 4519   3.481   0.535   1.268
 1500SOL    HW2 4520   3.601   0.568   1.162
 1501SOL     OW 4521   2.114   1.564   1.744
 1501SOL    HW1 4522   2.084   1.621   1.820
 1501SOL    HW2 4523   2.107   1.467   1.770
 1502SOL     OW 4524   2.533   0.464   1.269
 1502SOL    HW1 4525   2.499   0.375   1.239
 1502SOL    HW2 4526   2.559   0.518   1.189
 1503SOL     OW 4527   2.792   1.678   1.465
 1503SOL    HW1 4528   2.768   1.660   1.370
 1503SOL    HW2 4529   2.822   1.772   1.475
 1504SOL     OW 4530   2.335   0.500   0.191
 1504SOL    HW1 4531   2.396   0.580   0.195
 1504SOL    HW2 4532   2.240   0.531   0.198
 1505SOL     OW 4533   2.021   1.137   1.466
 1505SOL    HW1 4534   2.043   1.076   1.542
 1505SOL    HW2 4535   2.031   1.088   1.380
 1506SOL     OW 4536   3.209   1.059   1.234
 1506SOL    HW1 4537   3.233   0.996   1.160
 1506SOL    HW2 4538   3.119   1.099   1.216
 1507SOL     OW 4539   3.164   0.855   0.309
 1507SOL    HW1 4540   3.078   0.824   0.351
 1507SOL    HW2 4541   3.160   0.841   0.210
 1508SOL     OW 4542   3.621   1.747   1.154
 1508SOL    HW1 4543   3.682   1.777   1.081
 1508SOL    HW2 4544   3.583   1.658   1.132
 1509SOL     OW 4545   3.114   1.731   1.128
 1509SOL    HW1 4546   3.198   1.736   1.074
 1509SOL    HW2 4547   3.091   1.635   1.146
 1510SOL     OW 4548   1.945   1.258   1.022
 1510SOL    HW1 4549   1.940   1.257   1.122
 1510SOL    HW2 4550   1.862   1.217   0.984
 1511SOL     OW 4551   2.550   1.662   1.716
 1511SOL    HW1 4552   2.494   1.743   1.725
 1511SOL    HW2 4553   2.602   1.666   1.630
 1512SOL     OW 4554   2.765   0.086   0.133
 1512SOL    HW1 4555   2.816   0.087   0.047
 1512SOL    HW2 4556   2.821   0.044   0.204
 1513SOL     OW 4557   3.588   0.135   0.523
 1513SOL    HW1 4558   3.661   0.118   0.456
 1513SOL    HW2 4559   3.557   0.048   0.561
 1514SOL     OW 4560   3.250   1.573   0.477
 1514SOL    HW1 4561   3.317   1.585   0.403
 1514SOL    HW2 4562   3.210   1.662   0.500
 1515SOL     OW 4563   1.992   1.794   1.851
 1515SOL    HW1 4564   1.951   1.720   1.904
 1515SOL    HW2 4565   2.056   1.845   1.909
 1516SOL     OW 4566   3.142   0.927   0.672
 1516SOL    HW1 4567   3.202   0.846   0.674
 1516SOL    HW2 4568   3.182   0.996   0.612
 1517SOL     OW 4569   2.692   1.273   1.422
 1517SOL    HW1 4570   2.687   1.306   1.517
 1517SOL    HW2 4571   2.606   1.292   1.376
 1518SOL     OW 4572   2.534   1.616   0.154
 1518SOL    HW1 4573   2.543   1.626   0.055
 1518SOL    HW2 4574   2.494   1.527   0.175
 1519SOL     OW 4575   3.512   1.720   1.394
 1519SOL    HW1 4576   3.565   1.730   1.310
 1519SOL    HW2 4577   3.485   1.810   1.428
 1520SOL     OW 4578   3.703   0.175   0.963
 1520SOL    HW1 4579   3.742   0.090   0.927
 1520SOL    HW2 4580   3.605   0.177   0.944
 1521SOL     OW 4581   2.125   0.326   0.720
 1521SOL    HW1 4582   2.046   0.377   0.686
 1521SOL    HW2 4583   2.116   0.311   0.818
 1522SOL     OW 4584   3.056   1.612   0.031
 1522SOL    HW1 4585   3.062   1.519   0.068
 1522SOL    HW2 4586   2.997   1.612  -0.049
 1523SOL     OW 4587   2.684   1.002   1.372
 1523SOL    HW1 4588   2.724   1.001   1.280
 1523SOL    HW2 4589   2.694   1.094   1.412
 1524SOL     OW 4590   2.778   0.910   0.291
 1524SOL    HW1 4591   2.841   0.948   0.223
 1524SOL    HW2 4592   2.818   0.827   0.330
 1525SOL     OW 4593   3.366   1.607   0.044
 1525SOL    HW1 4594   3.274   1.644   0.051
 1525SOL    HW2 4595   3.404   1.627  -0.046
 1526SOL     OW 4596   2.234   1.288   1.490
 1526SOL    HW1 4597   2.221   1.381   1.456
 1526SOL    HW2 4598   2.150   1.236   1.477
 1527SOL     OW 4599   3.476   1.292   1.289
 1527SOL    HW1 4600   3.536   1.295   1.369
 1527SOL    HW2 4601   3.401   1.356   1.302
 1528SOL     OW 4602   2.901   1.098   0.696
 1528SOL    HW1 4603   2.831   1.051   0.750
 1528SOL    HW2 4604   2.960   1.030   0.653
 1529SOL     OW 4605   2.876   0.236   0.971
 1529SOL    HW1 4606   2.868   0.200   0.878
 1529SOL    HW2 4607   2.874   0.160   1.036
 1530SOL     OW 4608   2.452   1.487   0.491
 1530SOL    HW1 4609   2.494   1.429   0.421
 1530SOL    HW2 4610   2.408   1.566   0.447
 1531SOL     OW 4611   3.571   0.385   1.381
 1531SOL    HW1 4612   3.644   0.454   1.385
 1531SOL    HW2 4613   3.599   0.310   1.322
 1532SOL     OW 4614   2.117   1.348   0.290
 1532SOL    HW1 4615   2.021   1.349   0.263
 1532SOL    HW2 4616   2.129   1.401   0.374
 1533SOL     OW 4617   1.967   1.013   1.726
 1533SOL    HW1 4618   1.890   0.980   1.780
 1533SOL    HW2 4619   2.052   0.983   1.768
 1534SOL     OW 4620   2.534   0.203   1.489
 1534SOL    HW1 4621   2.624   0.187   1.449
 1534SOL    HW2 4622   2.542   0.208   1.588
 1535SOL     OW 4623   3.302   0.856   1.398
 1535SOL    HW1 4624   3.245   0.908   1.335
 1535SOL    HW2 4625   3.398   0.868   1.374
 1536SOL     OW 4626   3.045   1.335   0.119
 1536SOL    HW1 4627   2.946   1.324   0.121
 1536SOL    HW2 4628   3.079   1.350   0.212
 1537SOL     OW 4629   2.475   0.842   1.431
 1537SOL    HW1 4630   2.531   0.923   1.414
 1537SOL    HW2 4631   2.534   0.762   1.434
 1538SOL     OW 4632   3.355   1.767   0.959
 1538SOL    HW1 4633   3.388   1.831   0.890
 1538SOL    HW2 4634   3.421   1.761   1.034
 1539SOL     OW 4635   2.578   0.565   1.708
 1539SOL    HW1 4636   2.597   0.630   1.782
 1539SOL    HW2 4637   2.638   0.485   1.717
 1540SOL     OW 4638   3.312   1.220   1.633
 1540SOL    HW1 4639   3.303   1.210   1.732
 1540SOL    HW2 4640   3.408   1.213   1.607
 1541SOL     OW 4641   2.252   1.741   1.560
 1541SOL    HW1 4642   2.161   1.782   1.558
 1541SOL    HW2 4643   2.245   1.647   1.592
 1542SOL     OW 4644   3.536   0.883   1.254
 1542SOL    HW1 4645   3.509   0.794   1.217
 1542SOL    HW2 4646   3.537   0.951   1.181
 1543SOL     OW 4647   3.087   0.325   0.449
 1543SOL    HW1 4648   3.152   0.251   0.438
 1543SOL    HW2 4649   3.107   0.375   0.533
 1544SOL     OW 4650   2.456   0.745   0.652
 1544SOL    HW1 4651   2.506   0.830   0.633
 1544SOL    HW2 4652   2.368   0.747   0.604
 1545SOL     OW 4653   3.639   0.342   1.642
 1545SOL    HW1 4654   3.622   0.373   1.548
 1545SOL    HW2 4655   3.555   0.305   1.680
 1546SOL     OW 4656   3.592   0.934   1.517
 1546SOL    HW1 4657   3.630   1.025   1.532
 1546SOL    HW2 4658   3.584   0.917   1.418
 1547SOL     OW 4659   2.721   1.374   0.016
 1547SOL    HW1 4660   2.675   1.389   0.104
 1547SOL    HW2 4661   2.765   1.459  -0.014
 1548SOL     OW 4662   2.523   1.790   0.953
 1548SOL    HW1 4663   2.477   1.878   0.940
 1548SOL    HW2 4664   2.622   1.802   0.946
 1549SOL     OW 4665   2.721   0.956   0.861
 1549SOL    HW1 4666   2.775   0.887   0.909
 1549SOL    HW2 4667   2.689   1.025   0.927
 1550SOL     OW 4668   2.945   0.984   0.087
 1550SOL    HW1 4669   2.922   1.037   0.005
 1550SOL    HW2 4670   3.026   0.928   0.068
 1551SOL     OW 4671   3.723   1.569   0.851
 1551SOL    HW1 4672   3.652   1.557   0.781
 1551SOL    HW2 4673   3.724   1.490   0.911
 1552SOL     OW 4674   2.083   1.314   1.844
 1552SOL    HW1 4675   2.018   1.241   1.823
 1552SOL    HW2 4676   2.087   1.328   1.942
 1553SOL     OW 4677   1.941   1.240   0.653
 1553SOL    HW1 4678   1.940   1.193   0.741
 1553SOL    HW2 4679   2.023   1.212   0.602
 1554SOL     OW 4680   2.534   1.391   1.624
 1554SOL    HW1 4681   2.456   1.341   1.662
 1554SOL    HW2 4682   2.531   1.486   1.655
 1555SOL     OW 4683   3.686   0.192   1.227
 1555SOL    HW1 4684   3.682   0.102   1.271
 1555SOL    HW2 4685   3.689   0.181   1.128
 1556SOL     OW 4686   2.290   0.424   0.520
 1556SOL    HW1 4687   2.320   0.352   0.458
 1556SOL    HW2 4688   2.251   0.384   0.603
 1557SOL     OW 4689   3.567   1.487   1.104
 1557SOL    HW1 4690   3.474   1.462   1.077
 1557SOL    HW2 4691   3.593   1.437   1.186
 1558SOL     OW 4692   2.179   0.547   1.280
 1558SOL    HW1 4693   2.217   0.488   1.352
 1558SOL    HW2 4694   2.219   0.521   1.192
 1559SOL     OW 4695   2.674   1.586   0.687
 1559SOL    HW1 4696   2.706   1.596   0.593
 1559SOL    HW2 4697   2.595   1.524   0.689
 1560SOL     OW 4698   3.286   0.214   1.112
 1560SOL    HW1 4699   3.338   0.149   1.167
 1560SOL    HW2 4700   3.237   0.277   1.173
 1561SOL     OW 4701   2.863   0.034   1.154
 1561SOL    HW1 4702   2.800  -0.038   1.123
 1561SOL    HW2 4703   2.956  -0.002   1.154
 1562SOL     OW 4704   2.632   1.330   0.301
 1562SOL    HW1 4705   2.586   1.243   0.318
 1562SOL    HW2 4706   2.723   1.327   0.342
 1563SOL     OW 4707   2.480   1.567   1.284
 1563SOL    HW1 4708   2.475   1.649   1.341
 1563SOL    HW2 4709   2.569   1.564   1.239
 1564SOL     OW 4710   3.214   0.052   0.168
 1564SOL    HW1 4711   3.249   0.011   0.084
 1564SOL    HW2 4712   3.124   0.014   0.188
 1565SOL     OW 4713   3.162   0.453   0.691
 1565SOL    HW1 4714   3.103   0.533   0.695
 1565SOL    HW2 4715   3.177   0.418   0.784
 1566SOL     OW 4716   3.455   0.221   0.882
 1566SOL    HW1 4717   3.371   0.220   0.936
 1566SOL    HW2 4718   3.457   0.304   0.826
 1567SOL     OW 4719   1.901   1.077   0.300
 1567SOL    HW1 4720   2.000   1.066   0.291
 1567SOL    HW2 4721   1.861   0.991   0.332
 1568SOL     OW 4722   2.737   1.646   0.337
 1568SOL    HW1 4723   2.660   1.611   0.283
 1568SOL    HW2 4724   2.705   1.717   0.399
 1569SOL     OW 4725   2.092   0.628   1.975
 1569SOL    HW1 4726   1.999   0.626   2.012
 1569SOL    HW2 4727   2.093   0.589   1.883
 1570SOL     OW 4728   2.087   0.275   2.858
 1570SOL    HW1 4729   2.122   0.258   2.950
 1570SOL    HW2 4730   1.999   0.230   2.846
 1571SOL     OW 4731   1.881   0.368   2.509
 1571SOL    HW1 4732   1.799   0.411   2.548
 1571SOL    HW2 4733   1.853   0.295   2.446
 1572SOL     OW 4734   2.431   1.275   3.027
 1572SOL    HW1 4735   2.338   1.268   2.990
 1572SOL    HW2 4736   2.442   1.364   3.071
 1573SOL     OW 4737   3.417   1.511   2.565
 1573SOL    HW1 4738   3.360   1.495   2.646
 1573SOL    HW2 4739   3.358   1.521   2.485
 1574SOL     OW 4740   2.997   0.703   2.579
 1574SOL    HW1 4741   3.054   0.781   2.554
 1574SOL    HW2 4742   2.937   0.729   2.655
 1575SOL     OW 4743   3.617   0.607   2.093
 1575SOL    HW1 4744   3.605   0.594   1.994
 1575SOL    HW2 4745   3.587   0.526   2.142
 1576SOL     OW 4746   2.630   1.144   2.885
 1576SOL    HW1 4747   2.552   1.161   2.945
 1576SOL    HW2 4748   2.664   1.231   2.849
 1577SOL     OW 4749   2.712   0.798   3.685
 1577SOL    HW1 4750   2.708   0.874   3.750
 1577SOL    HW2 4751   2.734   0.834   3.594
 1578SOL     OW 4752   2.547   1.012   2.527
 1578SOL    HW1 4753   2.616   0.996   2.597
 1578SOL    HW2 4754   2.474   1.069   2.565
 1579SOL     OW 4755   2.548   1.161   3.665
 1579SOL    HW1 4756   2.608   1.240   3.679
 1579SOL    HW2 4757   2.462   1.192   3.624
 1580SOL     OW 4758   2.197   1.435   2.923
 1580SOL    HW1 4759   2.119   1.404   2.870
 1580SOL    HW2 4760   2.255   1.493   2.866
 1581SOL     OW 4761   3.322   1.505   3.201
 1581SOL    HW1 4762   3.346   1.599   3.227
 1581SOL    HW2 4763   3.306   1.451   3.283
 1582SOL     OW 4764   2.300   0.392   3.361
 1582SOL    HW1 4765   2.382   0.336   3.370
 1582SOL    HW2 4766   2.219   0.334   3.365
 1583SOL     OW 4767   3.465   0.447   2.599
 1583SOL    HW1 4768   3.391   0.493   2.549
 1583SOL    HW2 4769   3.516   0.515   2.652
 1584SOL     OW 4770   2.093   1.713   2.345
 1584SOL    HW1 4771   2.127   1.790   2.399
 1584SOL    HW2 4772   2.137   1.713   2.255
 1585SOL     OW 4773   2.989   1.341   3.552
 1585SOL    HW1 4774   3.036   1.341   3.640
 1585SOL    HW2 4775   2.941   1.254   3.541
 1586SOL     OW 4776   2.092   1.434   2.400
 1586SOL    HW1 4777   2.066   1.530   2.400
 1586SOL    HW2 4778   2.021   1.380   2.445
 1587SOL     OW 4779   2.102   1.091   2.748
 1587SOL    HW1 4780   2.116   1.007   2.800
 1587SOL    HW2 4781   2.047   1.155   2.803
 1588SOL     OW 4782   2.482   1.786   3.301
 1588SOL    HW1 4783   2.390   1.769   3.336
 1588SOL    HW2 4784   2.510   1.878   3.327
 1589SOL     OW 4785   2.468   0.964   1.985
 1589SOL    HW1 4786   2.475   1.048   1.931
 1589SOL    HW2 4787   2.514   0.977   2.073
 1590SOL     OW 4788   3.456   0.114   3.342
 1590SOL    HW1 4789   3.438   0.181   3.270
 1590SOL    HW2 4790   3.453   0.160   3.431
 1591SOL     OW 4791   1.984   0.643   2.425
 1591SOL    HW1 4792   1.939   0.555   2.442
 1591SOL    HW2 4793   1.983   0.697   2.509
 1592SOL     OW 4794   3.704   1.767   2.221
 1592SOL    HW1 4795   3.758   1.738   2.301
 1592SOL    HW2 4796   3.734   1.857   2.192
 1593SOL     OW 4797   1.889   1.596   1.979
 1593SOL    HW1 4798   1.870   1.500   2.000
 1593SOL    HW2 4799   1.856   1.654   2.054
 1594SOL     OW 4800   3.551   0.922   2.474
 1594SOL    HW1 4801   3.646   0.893   2.482
 1594SOL    HW2 4802   3.543   0.987   2.399
 1595SOL     OW 4803   3.503   1.108   2.294
 1595SOL    HW1 4804   3.589   1.110   2.242
 1595SOL    HW2 4805   3.517   1.155   2.382
 1596SOL     OW 4806   1.975   0.737   3.459
 1596SOL    HW1 4807   2.063   0.724   3.504
 1596SOL    HW2 4808   1.962   0.834   3.437
 1597SOL     OW 4809   2.475   1.365   2.588
 1597SOL    HW1 4810   2.426   1.278   2.597
 1597SOL    HW2 4811   2.452   1.408   2.501
 1598SOL     OW 4812   3.155   1.228   3.285
 1598SOL    HW1 4813   3.192   1.155   3.227
 1598SOL    HW2 4814   3.207   1.233   3.370
 1599SOL     OW 4815   2.671   0.004   2.364
 1599SOL    HW1 4816   2.711   0.095   2.355
 1599SOL    HW2 4817   2.571   0.012   2.370
 1600SOL     OW 4818   2.059   0.976   3.126
 1600SOL    HW1 4819   2.148   0.931   3.112
 1600SOL    HW2 4820   1.986   0.911   3.107
 1601SOL     OW 4821   3.387   0.999   2.052
 1601SOL    HW1 4822   3.324   0.923   2.065
 1601SOL    HW2 4823   3.435   1.017   2.138
 1602SOL     OW 4824   3.049   1.792   3.478
 1602SOL    HW1 4825   3.073   1.852   3.402
 1602SOL    HW2 4826   3.056   1.697   3.448
 1603SOL     OW 4827   2.179   0.251   3.663
 1603SOL    HW1 4828   2.250   0.322   3.669
 1603SOL    HW2 4829   2.091   0.290   3.691
 1604SOL     OW 4830   3.328   1.417   2.815
 1604SOL    HW1 4831   3.269   1.423   2.895
 1604SOL    HW2 4832   3.313   1.329   2.769
 1605SOL     OW 4833   3.529   1.714   2.434
 1605SOL    HW1 4834   3.488   1.691   2.346
 1605SOL    HW2 4835   3.511   1.640   2.499
 1606SOL     OW 4836   2.460   0.729   2.132
 1606SOL    HW1 4837   2.484   0.798   2.064
 1606SOL    HW2 4838   2.382   0.762   2.186
 1607SOL     OW 4839   3.143   0.345   2.806
 1607SOL    HW1 4840   3.057   0.295   2.793
 1607SOL    HW2 4841   3.205   0.291   2.862
 1608SOL     OW 4842   3.438   1.662   2.169
 1608SOL    HW1 4843   3.527   1.708   2.172
 1608SOL    HW2 4844   3.417   1.638   2.074
 1609SOL     OW 4845   2.669   0.605   3.327
 1609SOL    HW1 4846   2.622   0.602   3.416
 1609SOL    HW2 4847   2.618   0.550   3.261
 1610SOL     OW 4848   3.256   0.469   3.536
 1610SOL    HW1 4849   3.236   0.512   3.624
 1610SOL    HW2 4850   3.334   0.407   3.545
 1611SOL     OW 4851   2.835   0.890   3.434
 1611SOL    HW1 4852   2.881   0.806   3.405
 1611SOL    HW2 4853   2.779   0.924   3.359
 1612SOL     OW 4854   2.853   0.410   3.104
 1612SOL    HW1 4855   2.776   0.444   3.158
 1612SOL    HW2 4856   2.819   0.359   3.025
 1613SOL     OW 4857   2.903   0.701   2.291
 1613SOL    HW1 4858   2.929   0.697   2.387
 1613SOL    HW2 4859   2.818   0.650   2.277
 1614SOL     OW 4860   1.938   0.811   2.651
 1614SOL    HW1 4861   2.037   0.799   2.660
 1614SOL    HW2 4862   1.914   0.906   2.672
 1615SOL     OW 4863   1.992   1.821   3.433
 1615SOL    HW1 4864   1.982   1.806   3.532
 1615SOL    HW2 4865   1.906   1.857   3.397
 1616SOL     OW 4866   2.727   0.348   2.057
 1616SOL    HW1 4867   2.786   0.411   2.008
 1616SOL    HW2 4868   2.746   0.254   2.028
 1617SOL     OW 4869   3.581   0.585   3.693
 1617SOL    HW1 4870   3.555   0.674   3.657
 1617SOL    HW2 4871   3.579   0.517   3.620
 1618SOL     OW 4872   3.224   1.144   2.407
 1618SOL    HW1 4873   3.307   1.115   2.359
 1618SOL    HW2 4874   3.175   1.211   2.351
 1619SOL     OW 4875   2.412   0.196   2.747
 1619SOL    HW1 4876   2.407   0.191   2.847
 1619SOL    HW2 4877   2.414   0.292   2.718
 1620SOL     OW 4878   2.870   1.456   2.339
 1620SOL    HW1 4879   2.824   1.528   2.287
 1620SOL    HW2 4880   2.866   1.476   2.437
 1621SOL     OW 4881   2.213   1.801   2.715
 1621SOL    HW1 4882   2.263   1.715   2.721
 1621SOL    HW2 4883   2.278   1.878   2.712
 1622SOL     OW 4884   3.657   1.066   2.735
 1622SOL    HW1 4885   3.595   1.051   2.659
 1622SOL    HW2 4886   3.605   1.077   2.820
 1623SOL     OW 4887   3.089   1.550   3.368
 1623SOL    HW1 4888   3.095   1.473   3.432
 1623SOL    HW2 4889   3.037   1.524   3.288
 1624SOL     OW 4890   2.183   0.943   2.104
 1624SOL    HW1 4891   2.265   0.982   2.062
 1624SOL    HW2 4892   2.156   0.861   2.055
 1625SOL     OW 4893   3.320   0.735   2.590
 1625SOL    HW1 4894   3.315   0.670   2.665
 1625SOL    HW2 4895   3.400   0.794   2.603
 1626SOL     OW 4896   2.323   1.266   3.589
 1626SOL    HW1 4897   2.273   1.267   3.503
 1626SOL    HW2 4898   2.260   1.248   3.665
 1627SOL     OW 4899   2.973   1.776   2.099
 1627SOL    HW1 4900   2.913   1.714   2.149
 1627SOL    HW2 4901   3.004   1.732   2.014
 1628SOL     OW 4902   2.064   0.285   3.360
 1628SOL    HW1 4903   1.984   0.345   3.347
 1628SOL    HW2 4904   2.054   0.236   3.446
 1629SOL     OW 4905   3.494   1.377   1.943
 1629SOL    HW1 4906   3.462   1.471   1.933
 1629SOL    HW2 4907   3.418   1.314   1.931
 1630SOL     OW 4908   2.326   1.743   2.185
 1630SOL    HW1 4909   2.359   1.782   2.271
 1630SOL    HW2 4910   2.402   1.736   2.120
 1631SOL     OW 4911   3.262   0.107   2.288
 1631SOL    HW1 4912   3.238   0.070   2.198
 1631SOL    HW2 4913   3.361   0.123   2.292
 1632SOL     OW 4914   2.111   1.785   3.103
 1632SOL    HW1 4915   2.168   1.720   3.153
 1632SOL    HW2 4916   2.095   1.752   3.010
 1633SOL     OW 4917   2.802   1.698   2.766
 1633SOL    HW1 4918   2.882   1.641   2.787
 1633SOL    HW2 4919   2.753   1.658   2.689
 1634SOL     OW 4920   2.244   0.700   2.342
 1634SOL    HW1 4921   2.289   0.610   2.339
 1634SOL    HW2 4922   2.150   0.689   2.375
 1635SOL     OW 4923   3.409   0.222   3.591
 1635SOL    HW1 4924   3.404   0.259   3.683
 1635SOL    HW2 4925   3.337   0.153   3.579
 1636SOL     OW 4926   2.476   0.122   1.979
 1636SOL    HW1 4927   2.574   0.100   1.986
 1636SOL    HW2 4928   2.445   0.105   1.886
 1637SOL     OW 4929   2.643   0.264   3.611
 1637SOL    HW1 4930   2.710   0.203   3.654
 1637SOL    HW2 4931   2.570   0.283   3.676
 1638SOL     OW 4932   2.750   1.514   3.057
 1638SOL    HW1 4933   2.727   1.489   2.963
 1638SOL    HW2 4934   2.811   1.445   3.096
 1639SOL     OW 4935   3.213   0.590   3.295
 1639SOL    HW1 4936   3.241   0.547   3.380
 1639SOL    HW2 4937   3.238   0.686   3.296
 1640SOL     OW 4938   2.665   1.402   2.786
 1640SOL    HW1 4939   2.755   1.416   2.744
 1640SOL    HW2 4940   2.594   1.404   2.715
 1641SOL     OW 4941   2.784   0.503   2.761
 1641SOL    HW1 4942   2.759   0.494   2.665
 1641SOL    HW2 4943   2.832   0.421   2.792
 1642SOL     OW 4944   2.401   0.064   2.374
 1642SOL    HW1 4945   2.320   0.065   2.432
 1642SOL    HW2 4946   2.404   0.147   2.319
 1643SOL     OW 4947   3.296   1.188   1.903
 1643SOL    HW1 4948   3.328   1.112   1.960
 1643SOL    HW2 4949   3.204   1.215   1.933
 1644SOL     OW 4950   2.159   0.035   2.033
 1644SOL    HW1 4951   2.208   0.119   2.012
 1644SOL    HW2 4952   2.221  -0.030   2.078
 1645SOL     OW 4953   2.797   0.236   2.342
 1645SOL    HW1 4954   2.749   0.277   2.264
 1645SOL    HW2 4955   2.896   0.234   2.323
 1646SOL     OW 4956   2.938   0.683   3.326
 1646SOL    HW1 4957   2.858   0.622   3.329
 1646SOL    HW2 4958   3.019   0.630   3.302
 1647SOL     OW 4959   3.089   1.570   2.655
 1647SOL    HW1 4960   3.110   1.644   2.590
 1647SOL    HW2 4961   3.157   1.570   2.728
 1648SOL     OW 4962   2.321   1.152   2.603
 1648SOL    HW1 4963   2.250   1.125   2.668
 1648SOL    HW2 4964   2.295   1.124   2.510
 1649SOL     OW 4965   3.133   1.797   2.453
 1649SOL    HW1 4966   3.177   1.861   2.389
 1649SOL    HW2 4967   3.083   1.849   2.523
 1650SOL     OW 4968   2.894   0.549   1.878
 1650SOL    HW1 4969   2.853   0.631   1.839
 1650SOL    HW2 4970   2.958   0.575   1.951
 1651SOL     OW 4971   1.940   0.556   3.248
 1651SOL    HW1 4972   2.032   0.555   3.207
 1651SOL    HW2 4973   1.934   0.630   3.315
 1652SOL     OW 4974   2.423   0.222   3.009
 1652SOL    HW1 4975   2.461   0.138   3.046
 1652SOL    HW2 4976   2.335   0.241   3.053
 1653SOL     OW 4977   2.728   0.454   2.504
 1653SOL    HW1 4978   2.696   0.526   2.442
 1653SOL    HW2 4979   2.752   0.373   2.451
 1654SOL     OW 4980   2.879   0.039   2.615
 1654SOL    HW1 4981   2.807   0.044   2.546
 1654SOL    HW2 4982   2.855  -0.030   2.684
 1655SOL     OW 4983   3.291   1.173   2.729
 1655SOL    HW1 4984   3.236   1.089   2.722
 1655SOL    HW2 4985   3.317   1.202   2.637
 1656SOL     OW 4986   3.328   0.590   2.854
 1656SOL    HW1 4987   3.298   0.495   2.861
 1656SOL    HW2 4988   3.401   0.606   2.920
 1657SOL     OW 4989   3.719   0.833   2.239
 1657SOL    HW1 4990   3.761   0.769   2.303
 1657SOL    HW2 4991   3.681   0.782   2.161
 1658SOL     OW 4992   2.350   1.385   2.036
 1658SOL    HW1 4993   2.263   1.370   2.083
 1658SOL    HW2 4994   2.333   1.411   1.941
 1659SOL     OW 4995   3.526   1.280   2.519
 1659SOL    HW1 4996   3.625   1.288   2.533
 1659SOL    HW2 4997   3.481   1.364   2.550
 1660SOL     OW 4998   3.252   0.575   1.940
 1660SOL    HW1 4999   3.198   0.554   2.021
 1660SOL    HW2 5000   3.343   0.534   1.949
 1661SOL     OW 5001   2.389   0.256   2.190
 1661SOL    HW1 5002   2.416   0.197   2.115
 1661SOL    HW2 5003   2.389   0.351   2.159
 1662SOL     OW 5004   3.616   1.223   3.450
 1662SOL    HW1 5005   3.707   1.184   3.437
 1662SOL    HW2 5006   3.624   1.319   3.474
 1663SOL     OW 5007   2.926   1.347   3.202
 1663SOL    HW1 5008   2.846   1.324   3.257
 1663SOL    HW2 5009   3.009   1.321   3.251
 1664SOL     OW 5010   3.454   1.629   3.487
 1664SOL    HW1 5011   3.481   1.663   3.397
 1664SOL    HW2 5012   3.533   1.591   3.533
 1665SOL     OW 5013   2.973   1.195   2.962
 1665SOL    HW1 5014   2.933   1.239   3.043
 1665SOL    HW2 5015   2.932   1.232   2.879
 1666SOL     OW 5016   3.500   1.099   2.941
 1666SOL    HW1 5017   3.505   1.180   3.000
 1666SOL    HW2 5018   3.414   1.101   2.890
 1667SOL     OW 5019   2.777   0.089   3.264
 1667SOL    HW1 5020   2.802   0.069   3.169
 1667SOL    HW2 5021   2.849   0.145   3.306
 1668SOL     OW 5022   2.842   1.116   3.581
 1668SOL    HW1 5023   2.743   1.122   3.591
 1668SOL    HW2 5024   2.865   1.036   3.525
 1669SOL     OW 5025   2.567   1.050   2.230
 1669SOL    HW1 5026   2.553   1.057   2.329
 1669SOL    HW2 5027   2.651   0.999   2.212
 1670SOL     OW 5028   2.272   0.813   3.113
 1670SOL    HW1 5029   2.358   0.825   3.163
 1670SOL    HW2 5030   2.230   0.726   3.140
 1671SOL     OW 5031   3.136   0.386   3.124
 1671SOL    HW1 5032   3.157   0.460   3.188
 1671SOL    HW2 5033   3.047   0.403   3.081
 1672SOL     OW 5034   1.926   1.564   3.193
 1672SOL    HW1 5035   1.880   1.646   3.159
 1672SOL    HW2 5036   2.024   1.583   3.202
 1673SOL     OW 5037   2.229   1.100   2.363
 1673SOL    HW1 5038   2.222   1.183   2.307
 1673SOL    HW2 5039   2.233   1.020   2.303
 1674SOL     OW 5040   2.428   0.537   2.727
 1674SOL    HW1 5041   2.440   0.603   2.653
 1674SOL    HW2 5042   2.474   0.571   2.810
 1675SOL     OW 5043   3.114   1.348   2.250
 1675SOL    HW1 5044   3.164   1.425   2.290
 1675SOL    HW2 5045   3.019   1.350   2.282
 1676SOL     OW 5046   3.134   1.445   3.004
 1676SOL    HW1 5047   3.181   1.458   3.091
 1676SOL    HW2 5048   3.068   1.371   3.013
 1677SOL     OW 5049   3.444   0.639   2.334
 1677SOL    HW1 5050   3.413   0.700   2.407
 1677SOL    HW2 5051   3.494   0.691   2.265
 1678SOL     OW 5052   2.216   1.510   3.191
 1678SOL    HW1 5053   2.195   1.466   3.104
 1678SOL    HW2 5054   2.313   1.536   3.194
 1679SOL     OW 5055   2.264   0.751   3.460
 1679SOL    HW1 5056   2.332   0.806   3.413
 1679SOL    HW2 5057   2.304   0.663   3.487
 1680SOL     OW 5058   3.449   0.779   3.532
 1680SOL    HW1 5059   3.357   0.817   3.527
 1680SOL    HW2 5060   3.509   0.826   3.467
 1681SOL     OW 5061   2.875   0.105   3.632
 1681SOL    HW1 5062   2.881   0.190   3.580
 1681SOL    HW2 5063   2.907   0.029   3.575
 1682SOL     OW 5064   2.366   0.050   3.602
 1682SOL    HW1 5065   2.324  -0.007   3.532
 1682SOL    HW2 5066   2.300   0.119   3.634
 1683SOL     OW 5067   2.435   0.870   2.891
 1683SOL    HW1 5068   2.479   0.959   2.882
 1683SOL    HW2 5069   2.372   0.870   2.968
 1684SOL     OW 5070   3.222   0.862   2.907
 1684SOL    HW1 5071   3.147   0.862   2.841
 1684SOL    HW2 5072   3.259   0.770   2.916
 1685SOL     OW 5073   3.071   0.525   2.137
 1685SOL    HW1 5074   3.084   0.441   2.191
 1685SOL    HW2 5075   3.042   0.599   2.197
 1686SOL     OW 5076   2.169   0.213   3.093
 1686SOL    HW1 5077   2.146   0.250   3.183
 1686SOL    HW2 5078   2.139   0.118   3.087
 1687SOL     OW 5079   1.899   1.310   3.144
 1687SOL    HW1 5080   1.952   1.261   3.212
 1687SOL    HW2 5081   1.921   1.408   3.149
 1688SOL     OW 5082   2.594   0.634   2.926
 1688SOL    HW1 5083   2.653   0.608   2.850
 1688SOL    HW2 5084   2.566   0.730   2.915
 1689SOL     OW 5085   3.590   0.935   3.716
 1689SOL    HW1 5086   3.544   0.928   3.627
 1689SOL    HW2 5087   3.528   0.979   3.782
 1690SOL     OW 5088   2.169   0.063   2.480
 1690SOL    HW1 5089   2.158   0.157   2.513
 1690SOL    HW2 5090   2.164   0.000   2.557
 1691SOL     OW 5091   3.484   0.367   2.236
 1691SOL    HW1 5092   3.486   0.291   2.300
 1691SOL    HW2 5093   3.436   0.444   2.276
 1692SOL     OW 5094   2.885   0.766   2.828
 1692SOL    HW1 5095   2.900   0.787   2.924
 1692SOL    HW2 5096   2.855   0.671   2.819
 1693SOL     OW 5097   2.842   1.573   3.562
 1693SOL    HW1 5098   2.822   1.617   3.474
 1693SOL    HW2 5099   2.881   1.482   3.546
 1694SOL     OW 5100   3.721   1.518   3.467
 1694SOL    HW1 5101   3.735   1.545   3.372
 1694SOL    HW2 5102   3.804   1.540   3.520
 1695SOL     OW 5103   2.212   0.898   3.666
 1695SOL    HW1 5104   2.288   0.942   3.714
 1695SOL    HW2 5105   2.247   0.851   3.584
 1696SOL     OW 5106   3.402   0.274   1.987
 1696SOL    HW1 5107   3.341   0.199   2.010
 1696SOL    HW2 5108   3.424   0.326   2.070
 1697SOL     OW 5109   3.165   0.838   1.904
 1697SOL    HW1 5110   3.199   0.745   1.919
 1697SOL    HW2 5111   3.183   0.865   1.809
 1698SOL     OW 5112   2.930   1.333   2.711
 1698SOL    HW1 5113   2.937   1.249   2.656
 1698SOL    HW2 5114   2.992   1.402   2.675
 1699SOL     OW 5115   2.181   0.810   2.811
 1699SOL    HW1 5116   2.274   0.846   2.816
 1699SOL    HW2 5117   2.175   0.725   2.863
 1700SOL     OW 5118   2.201   0.509   2.868
 1700SOL    HW1 5119   2.149   0.426   2.851
 1700SOL    HW2 5120   2.278   0.514   2.804
 1701SOL     OW 5121   3.000   0.380   3.540
 1701SOL    HW1 5122   2.955   0.443   3.604
 1701SOL    HW2 5123   3.093   0.411   3.523
 1702SOL     OW 5124   3.022   0.207   3.339
 1702SOL    HW1 5125   3.022   0.271   3.416
 1702SOL    HW2 5126   3.050   0.255   3.256
 1703SOL     OW 5127   1.870   1.326   2.062
 1703SOL    HW1 5128   1.777   1.347   2.031
 1703SOL    HW2 5129   1.880   1.227   2.075
 1704SOL     OW 5130   1.950   1.801   2.789
 1704SOL    HW1 5131   1.908   1.715   2.762
 1704SOL    HW2 5132   2.044   1.804   2.755
 1705SOL     OW 5133   2.366   1.568   2.772
 1705SOL    HW1 5134   2.432   1.642   2.781
 1705SOL    HW2 5135   2.410   1.489   2.730
 1706SOL     OW 5136   2.864   0.796   3.100
 1706SOL    HW1 5137   2.905   0.764   3.186
 1706SOL    HW2 5138   2.768   0.769   3.097
 1707SOL     OW 5139   1.902   0.544   2.976
 1707SOL    HW1 5140   1.987   0.511   2.935
 1707SOL    HW2 5141   1.915   0.559   3.074
 1708SOL     OW 5142   2.051   0.520   3.584
 1708SOL    HW1 5143   2.110   0.480   3.514
 1708SOL    HW2 5144   1.993   0.591   3.543
 1709SOL     OW 5145   3.231   0.950   3.522
 1709SOL    HW1 5146   3.270   1.039   3.542
 1709SOL    HW2 5147   3.241   0.930   3.425
 1710SOL     OW 5148   2.677   0.572   2.187
 1710SOL    HW1 5149   2.684   0.483   2.141
 1710SOL    HW2 5150   2.583   0.606   2.179
 1711SOL     OW 5151   3.519   0.604   3.068
 1711SOL    HW1 5152   3.481   0.535   3.130
 1711SOL    HW2 5153   3.601   0.568   3.024
 1712SOL     OW 5154   2.114   1.564   3.606
 1712SOL    HW1 5155   2.084   1.621   3.682
 1712SOL    HW2 5156   2.107   1.467   3.632
 1713SOL     OW 5157   2.533   0.464   3.131
 1713SOL    HW1 5158   2.499   0.375   3.101
 1713SOL    HW2 5159   2.559   0.518   3.051
 1714SOL     OW 5160   2.792   1.678   3.327
 1714SOL    HW1 5161   2.768   1.660   3.232
 1714SOL    HW2 5162   2.822   1.772   3.337
 1715SOL     OW 5163   2.335   0.500   2.053
 1715SOL    HW1 5164   2.396   0.580   2.057
 1715SOL    HW2 5165   2.240   0.531   2.060
 1716SOL     OW 5166   2.021   1.137   3.328
 1716SOL    HW1 5167   2.043   1.076   3.404
 1716SOL    HW2 5168   2.031   1.088   3.242
 1717SOL     OW 5169   3.209   1.059   3.096
 1717SOL    HW1 5170   3.233   0.996   3.022
 1717SOL    HW2 5171   3.119   1.099   3.078
 1718SOL     OW 5172   3.164   0.855   2.171
 1718SOL    HW1 5173   3.078   0.824   2.213
 1718SOL    HW2 5174   3.160   0.841   2.072
 1719SOL     OW 5175   3.621   1.747   3.016
 1719SOL    HW1 5176   3.682   1.777   2.943
 1719SOL    HW2 5177   3.583   1.658   2.994
 1720SOL     OW 5178   3.114   1.731   2.990
 1720SOL    HW1 5179   3.198   1.736   2.936
 1720SOL    HW2 5180   3.091   1.635   3.008
 1721SOL     OW 5181   1.945   1.258   2.884
 1721SOL    HW1 5182   1.940   1.257   2.984
 1721SOL    HW2 5183   1.862   1.217   2.846
 1722SOL     OW 5184   2.550   1.662   3.578
 1722SOL    HW1 5185   2.494   1.743   3.587
 1722SOL    HW2 5186   2.602   1.666   3.492
 1723SOL     OW 5187   3.588   0.135   2.385
 1723SOL    HW1 5188   3.661   0.118   2.318
 1723SOL    HW2 5189   3.557   0.048   2.423
 1724SOL     OW 5190   3.250   1.573   2.339
 1724SOL    HW1 5191   3.317   1.585   2.265
 1724SOL    HW2 5192   3.210   1.662   2.362
 1725SOL     OW 5193   1.992   1.794   3.713
 1725SOL    HW1 5194   1.951   1.720   3.766
 1725SOL    HW2 5195   2.056   1.845   3.771
 1726SOL     OW 5196   3.142   0.927   2.534
 1726SOL    HW1 5197   3.202   0.846   2.536
 1726SOL    HW2 5198   3.182   0.996   2.474
 1727SOL     OW 5199   2.692   1.273   3.284
 1727SOL    HW1 5200   2.687   1.306   3.379
 1727SOL    HW2 5201   2.606   1.292   3.238
 1728SOL     OW 5202   2.534   1.616   2.016
 1728SOL    HW1 5203   2.543   1.626   1.917
 1728SOL    HW2 5204   2.494   1.527   2.037
 1729SOL     OW 5205   3.512   1.720   3.256
 1729SOL    HW1 5206   3.565   1.730   3.172
 1729SOL    HW2 5207   3.485   1.810   3.290
 1730SOL     OW 5208   3.703   0.175   2.825
 1730SOL    HW1 5209   3.742   0.090   2.789
 1730SOL    HW2 5210   3.605   0.177   2.806
 1731SOL     OW 5211   2.125   0.326   2.582
 1731SOL    HW1 5212   2.046   0.377   2.548
 1731SOL    HW2 5213   2.116   0.311   2.680
 1732SOL     OW 5214   3.056   1.612   1.893
 1732SOL    HW1 5215   3.062   1.519   1.930
 1732SOL    HW2 5216   2.997   1.612   1.813
 1733SOL     OW 5217   2.684   1.002   3.234
 1733SOL    HW1 5218   2.724   1.001   3.142
 1733SOL    HW2 5219   2.694   1.094   3.274
 1734SOL     OW 5220   2.778   0.910   2.153
 1734SOL    HW1 5221   2.841   0.948   2.085
 1734SOL    HW2 5222   2.818   0.827   2.192
 1735SOL     OW 5223   3.366   1.607   1.906
 1735SOL    HW1 5224   3.274   1.644   1.913
 1735SOL    HW2 5225   3.404   1.627   1.816
 1736SOL     OW 5226   2.234   1.288   3.352
 1736SOL    HW1 5227   2.221   1.381   3.318
 1736SOL    HW2 5228   2.150   1.236   3.339
 1737SOL     OW 5229   3.476   1.292   3.151
 1737SOL    HW1 5230   3.536   1.295   3.231
 1737SOL    HW2 5231   3.401   1.356   3.164
 1738SOL     OW 5232   2.901   1.098   2.558
 1738SOL    HW1 5233   2.831   1.051   2.612
 1738SOL    HW2 5234   2.960   1.030   2.515
 1739SOL     OW 5235   2.876   0.236   2.833
 1739SOL    HW1 5236   2.868   0.200   2.740
 1739SOL    HW2 5237   2.874   0.160   2.898
 1740SOL     OW 5238   2.452   1.487   2.353
 1740SOL    HW1 5239   2.494   1.429   2.283
 1740SOL    HW2 5240   2.408   1.566   2.309
 1741SOL     OW 5241   3.571   0.385   3.243
 1741SOL    HW1 5242   3.644   0.454   3.247
 1741SOL    HW2 5243   3.599   0.310   3.184
 1742SOL     OW 5244   2.117   1.348   2.152
 1742SOL    HW1 5245   2.021   1.349   2.125
 1742SOL    HW2 5246   2.129   1.401   2.236
 1743SOL     OW 5247   1.967   1.013   3.588
 1743SOL    HW1 5248   1.890   0.980   3.642
 1743SOL    HW2 5249   2.052   0.983   3.630
 1744SOL     OW 5250   2.534   0.203   3.351
 1744SOL    HW1 5251   2.624   0.187   3.311
 1744SOL    HW2 5252   2.542   0.208   3.450
 1745SOL     OW 5253   1.937   0.345   1.895
 1745SOL    HW1 5254   1.845   0.317   1.866
 1745SOL    HW2 5255   1.968   0.422   1.839
 1746SOL     OW 5256   3.302   0.856   3.260
 1746SOL    HW1 5257   3.245   0.908   3.197
 1746SOL    HW2 5258   3.398   0.868   3.236
 1747SOL     OW 5259   1.934   0.166   2.180
 1747SOL    HW1 5260   1.917   0.249   2.126
 1747SOL    HW2 5261   2.024   0.129   2.158
 1748SOL     OW 5262   3.045   1.335   1.981
 1748SOL    HW1 5263   2.946   1.324   1.983
 1748SOL    HW2 5264   3.079   1.350   2.074
 1749SOL     OW 5265   2.475   0.842   3.293
 1749SOL    HW1 5266   2.531   0.923   3.276
 1749SOL    HW2 5267   2.534   0.762   3.296
 1750SOL     OW 5268   3.355   1.767   2.821
 1750SOL    HW1 5269   3.388   1.831   2.752
 1750SOL    HW2 5270   3.421   1.761   2.896
 1751SOL     OW 5271   2.578   0.565   3.570
 1751SOL    HW1 5272   2.597   0.630   3.644
 1751SOL    HW2 5273   2.638   0.485   3.579
 1752SOL     OW 5274   3.312   1.220   3.495
 1752SOL    HW1 5275   3.303   1.210   3.594
 1752SOL    HW2 5276   3.408   1.213   3.469
 1753SOL     OW 5277   2.252   1.741   3.422
 1753SOL    HW1 5278   2.161   1.782   3.420
 1753SOL    HW2 5279   2.245   1.647   3.454
 1754SOL     OW 5280   3.536   0.883   3.116
 1754SOL    HW1 5281   3.509   0.794   3.079
 1754SOL    HW2 5282   3.537   0.951   3.043
 1755SOL     OW 5283   3.087   0.325   2.311
 1755SOL    HW1 5284   3.152   0.251   2.300
 1755SOL    HW2 5285   3.107   0.375   2.395
 1756SOL     OW 5286   2.456   0.745   2.514
 1756SOL    HW1 5287   2.506   0.830   2.495
 1756SOL    HW2 5288   2.368   0.747   2.466
 1757SOL     OW 5289   3.639   0.342   3.504
 1757SOL    HW1 5290   3.622   0.373   3.410
 1757SOL    HW2 5291   3.555   0.305   3.542
 1758SOL     OW 5292   3.592   0.934   3.379
 1758SOL    HW1 5293   3.630   1.025   3.394
 1758SOL    HW2 5294   3.584   0.917   3.280
 1759SOL     OW 5295   2.721   1.374   1.878
 1759SOL    HW1 5296   2.675   1.389   1.966
 1759SOL    HW2 5297   2.765   1.459   1.848
 1760SOL     OW 5298   2.523   1.790   2.815
 1760SOL    HW1 5299   2.477   1.878   2.802
 1760SOL    HW2 5300   2.622   1.802   2.808
 1761SOL     OW 5301   2.721   0.956   2.723
 1761SOL    HW1 5302   2.775   0.887   2.771
 1761SOL    HW2 5303   2.689   1.025   2.789
 1762SOL     OW 5304   2.945   0.984   1.949
 1762SOL    HW1 5305   2.922   1.037   1.867
 1762SOL    HW2 5306   3.026   0.928   1.930
 1763SOL     OW 5307   3.723   1.569   2.713
 1763SOL    HW1 5308   3.652   1.557   2.643
 1763SOL    HW2 5309   3.724   1.490   2.773
 1764SOL     OW 5310   2.083   1.314   3.706
 1764SOL    HW1 5311   2.018   1.241   3.685
 1764SOL    HW2 5312   2.087   1.328   3.804
 1765SOL     OW 5313   1.941   1.240   2.515
 1765SOL    HW1 5314   1.940   1.193   2.603
 1765SOL    HW2 5315   2.023   1.212   2.464
 1766SOL     OW 5316   2.534   1.391   3.486
 1766SOL    HW1 5317   2.456   1.341   3.524
 1766SOL    HW2 5318   2.531   1.486   3.517
 1767SOL     OW 5319   3.686   0.192   3.089
 1767SOL    HW1 5320   3.682   0.102   3.133
 1767SOL    HW2 5321   3.689   0.181   2.990
 1768SOL     OW 5322   2.290   0.424   2.382
 1768SOL    HW1 5323   2.320   0.352   2.320
 1768SOL    HW2 5324   2.251   0.384   2.465
 1769SOL     OW 5325   3.567   1.487   2.966
 1769SOL    HW1 5326   3.474   1.462   2.939
 1769SOL    HW2 5327   3.593   1.437   3.048
 1770SOL     OW 5328   2.179   0.547   3.142
 1770SOL    HW1 5329   2.217   0.488   3.214
 1770SOL    HW2 5330   2.219   0.521   3.054
 1771SOL     OW 5331   2.674   1.586   2.549
 1771SOL    HW1 5332   2.706   1.596   2.455
 1771SOL    HW2 5333   2.595   1.524   2.551
 1772SOL     OW 5334   3.286   0.214   2.974
 1772SOL    HW1 5335   3.338   0.149   3.029
 1772SOL    HW2 5336   3.237   0.277   3.035
 1773SOL     OW 5337   2.863   0.034   3.016
 1773SOL    HW1 5338   2.800  -0.038   2.985
 1773SOL    HW2 5339   2.956  -0.002   3.016
 1774SOL     OW 5340   2.632   1.330   2.163
 1774SOL    HW1 5341   2.586   1.243   2.180
 1774SOL    HW2 5342   2.723   1.327   2.204
 1775SOL     OW 5343   2.480   1.567   3.146
 1775SOL    HW1 5344   2.475   1.649   3.203
 1775SOL    HW2 5345   2.569   1.564   3.101
 1776SOL     OW 5346   3.214   0.052   2.030
 1776SOL    HW1 5347   3.249   0.011   1.946
 1776SOL    HW2 5348   3.124   0.014   2.050
 1777SOL     OW 5349   3.162   0.453   2.553
 1777SOL    HW1 5350   3.103   0.533   2.557
 1777SOL    HW2 5351   3.177   0.418   2.646
 1778SOL     OW 5352   3.455   0.221   2.744
 1778SOL    HW1 5353   3.371   0.220   2.798
 1778SOL    HW2 5354   3.457   0.304   2.688
 1779SOL     OW 5355   1.901   1.077   2.162
 1779SOL    HW1 5356   2.000   1.066   2.153
 1779SOL    HW2 5357   1.861   0.991   2.194
 1780SOL     OW 5358   2.737   1.646   2.199
 1780SOL    HW1 5359   2.660   1.611   2.145
 1780SOL    HW2 5360   2.705   1.717   2.261
 1781SOL     OW 5361   2.092   0.628   3.837
 1781SOL    HW1 5362   1.999   0.626   3.874
 1781SOL    HW2 5363   2.093   0.589   3.745
 1782SOL     OW 5364   2.087   0.275   4.720
 1782SOL    HW1 5365   2.122   0.258   4.812
 1782SOL    HW2 5366   1.999   0.230   4.708
 1783SOL     OW 5367   1.881   0.368   4.371
 1783SOL    HW1 5368   1.799   0.411   4.410
 1783SOL    HW2 5369   1.853   0.295   4.308
 1784SOL     OW 5370   3.417   1.511   4.427
 1784SOL    HW1 5371   3.360   1.495   4.508
 1784SOL    HW2 5372   3.358   1.521   4.347
 1785SOL     OW 5373   2.997   0.703   4.441
 1785SOL    HW1 5374   3.054   0.781   4.416
 1785SOL    HW2 5375   2.937   0.729   4.517
 1786SOL     OW 5376   3.617   0.607   3.955
 1786SOL    HW1 5377   3.605   0.594   3.856
 1786SOL    HW2 5378   3.587   0.526   4.004
 1787SOL     OW 5379   2.630   1.144   4.747
 1787SOL    HW1 5380   2.552   1.161   4.807
 1787SOL    HW2 5381   2.664   1.231   4.711
 1788SOL     OW 5382   2.547   1.012   4.389
 1788SOL    HW1 5383   2.616   0.996   4.459
 1788SOL    HW2 5384   2.474   1.069   4.427
 1789SOL     OW 5385   3.465   0.447   4.461
 1789SOL    HW1 5386   3.391   0.493   4.411
 1789SOL    HW2 5387   3.516   0.515   4.514
 1790SOL     OW 5388   2.093   1.713   4.207
 1790SOL    HW1 5389   2.127   1.790   4.261
 1790SOL    HW2 5390   2.137   1.713   4.117
 1791SOL     OW 5391   2.092   1.434   4.262
 1791SOL    HW1 5392   2.066   1.530   4.262
 1791SOL    HW2 5393   2.021   1.380   4.307
 1792SOL     OW 5394   2.102   1.091   4.610
 1792SOL    HW1 5395   2.116   1.007   4.662
 1792SOL    HW2 5396   2.047   1.155   4.665
 1793SOL     OW 5397   2.468   0.964   3.847
 1793SOL    HW1 5398   2.475   1.048   3.793
 1793SOL    HW2 5399   2.514   0.977   3.935
 1794SOL     OW 5400   1.984   0.643   4.287
 1794SOL    HW1 5401   1.939   0.555   4.304
 1794SOL    HW2 5402   1.983   0.697   4.371
 1795SOL     OW 5403   3.704   1.767   4.083
 1795SOL    HW1 5404   3.758   1.738   4.163
 1795SOL    HW2 5405   3.734   1.857   4.054
 1796SOL     OW 5406   1.889   1.596   3.841
 1796SOL    HW1 5407   1.870   1.500   3.862
 1796SOL    HW2 5408   1.856   1.654   3.916
 1797SOL     OW 5409   3.551   0.922   4.336
 1797SOL    HW1 5410   3.646   0.893   4.344
 1797SOL    HW2 5411   3.543   0.987   4.261
 1798SOL     OW 5412   3.503   1.108   4.156
 1798SOL    HW1 5413   3.589   1.110   4.104
 1798SOL    HW2 5414   3.517   1.155   4.244
 1799SOL     OW 5415   2.475   1.365   4.450
 1799SOL    HW1 5416   2.426   1.278   4.459
 1799SOL    HW2 5417   2.452   1.408   4.363
 1800SOL     OW 5418   2.671   0.004   4.226
 1800SOL    HW1 5419   2.711   0.095   4.217
 1800SOL    HW2 5420   2.571   0.012   4.232
 1801SOL     OW 5421   3.387   0.999   3.914
 1801SOL    HW1 5422   3.324   0.923   3.927
 1801SOL    HW2 5423   3.435   1.017   4.000
 1802SOL     OW 5424   3.328   1.417   4.677
 1802SOL    HW1 5425   3.269   1.423   4.757
 1802SOL    HW2 5426   3.313   1.329   4.631
 1803SOL     OW 5427   3.529   1.714   4.296
 1803SOL    HW1 5428   3.488   1.691   4.208
 1803SOL    HW2 5429   3.511   1.640   4.361
 1804SOL     OW 5430   2.460   0.729   3.994
 1804SOL    HW1 5431   2.484   0.798   3.926
 1804SOL    HW2 5432   2.382   0.762   4.048
 1805SOL     OW 5433   3.143   0.345   4.668
 1805SOL    HW1 5434   3.057   0.295   4.655
 1805SOL    HW2 5435   3.205   0.291   4.724
 1806SOL     OW 5436   3.438   1.662   4.031
 1806SOL    HW1 5437   3.527   1.708   4.034
 1806SOL    HW2 5438   3.417   1.638   3.936
 1807SOL     OW 5439   2.903   0.701   4.153
 1807SOL    HW1 5440   2.929   0.697   4.249
 1807SOL    HW2 5441   2.818   0.650   4.139
 1808SOL     OW 5442   1.938   0.811   4.513
 1808SOL    HW1 5443   2.037   0.799   4.522
 1808SOL    HW2 5444   1.914   0.906   4.534
 1809SOL     OW 5445   2.727   0.348   3.919
 1809SOL    HW1 5446   2.786   0.411   3.870
 1809SOL    HW2 5447   2.746   0.254   3.890
 1810SOL     OW 5448   3.224   1.144   4.269
 1810SOL    HW1 5449   3.307   1.115   4.221
 1810SOL    HW2 5450   3.175   1.211   4.213
 1811SOL     OW 5451   2.870   1.456   4.201
 1811SOL    HW1 5452   2.824   1.528   4.149
 1811SOL    HW2 5453   2.866   1.476   4.299
 1812SOL     OW 5454   2.213   1.801   4.577
 1812SOL    HW1 5455   2.263   1.715   4.583
 1812SOL    HW2 5456   2.278   1.878   4.574
 1813SOL     OW 5457   3.657   1.066   4.597
 1813SOL    HW1 5458   3.595   1.051   4.521
 1813SOL    HW2 5459   3.605   1.077   4.682
 1814SOL     OW 5460   2.183   0.943   3.966
 1814SOL    HW1 5461   2.265   0.982   3.924
 1814SOL    HW2 5462   2.156   0.861   3.917
 1815SOL     OW 5463   3.320   0.735   4.452
 1815SOL    HW1 5464   3.315   0.670   4.527
 1815SOL    HW2 5465   3.400   0.794   4.465
 1816SOL     OW 5466   2.973   1.776   3.961
 1816SOL    HW1 5467   2.913   1.714   4.011
 1816SOL    HW2 5468   3.004   1.732   3.876
 1817SOL     OW 5469   3.494   1.377   3.805
 1817SOL    HW1 5470   3.462   1.471   3.795
 1817SOL    HW2 5471   3.418   1.314   3.793
 1818SOL     OW 5472   2.326   1.743   4.047
 1818SOL    HW1 5473   2.359   1.782   4.133
 1818SOL    HW2 5474   2.402   1.736   3.982
 1819SOL     OW 5475   3.262   0.107   4.150
 1819SOL    HW1 5476   3.238   0.070   4.060
 1819SOL    HW2 5477   3.361   0.123   4.154
 1820SOL     OW 5478   2.244   0.700   4.204
 1820SOL    HW1 5479   2.289   0.610   4.201
 1820SOL    HW2 5480   2.150   0.689   4.237
 1821SOL     OW 5481   2.476   0.122   3.841
 1821SOL    HW1 5482   2.574   0.100   3.848
 1821SOL    HW2 5483   2.445   0.105   3.748
 1822SOL     OW 5484   2.784   0.503   4.623
 1822SOL    HW1 5485   2.759   0.494   4.527
 1822SOL    HW2 5486   2.832   0.421   4.654
 1823SOL     OW 5487   2.401   0.064   4.236
 1823SOL    HW1 5488   2.320   0.065   4.294
 1823SOL    HW2 5489   2.404   0.147   4.181
 1824SOL     OW 5490   3.296   1.188   3.765
 1824SOL    HW1 5491   3.328   1.112   3.822
 1824SOL    HW2 5492   3.204   1.215   3.795
 1825SOL     OW 5493   2.159   0.035   3.895
 1825SOL    HW1 5494   2.208   0.119   3.874
 1825SOL    HW2 5495   2.221  -0.030   3.940
 1826SOL     OW 5496   2.797   0.236   4.204
 1826SOL    HW1 5497   2.749   0.277   4.126
 1826SOL    HW2 5498   2.896   0.234   4.185
 1827SOL     OW 5499   3.089   1.570   4.517
 1827SOL    HW1 5500   3.110   1.644   4.452
 1827SOL    HW2 5501   3.157   1.570   4.590
 1828SOL     OW 5502   2.321   1.152   4.465
 1828SOL    HW1 5503   2.250   1.125   4.530
 1828SOL    HW2 5504   2.295   1.124   4.372
 1829SOL     OW 5505   3.133   1.797   4.315
 1829SOL    HW1 5506   3.177   1.861   4.251
 1829SOL    HW2 5507   3.083   1.849   4.385
 1830SOL     OW 5508   2.894   0.549   3.740
 1830SOL    HW1 5509   2.853   0.631   3.701
 1830SOL    HW2 5510   2.958   0.575   3.813
 1831SOL     OW 5511   2.728   0.454   4.366
 1831SOL    HW1 5512   2.696   0.526   4.304
 1831SOL    HW2 5513   2.752   0.373   4.313
 1832SOL     OW 5514   2.879   0.039   4.477
 1832SOL    HW1 5515   2.807   0.044   4.408
 1832SOL    HW2 5516   2.855  -0.030   4.546
 1833SOL     OW 5517   3.291   1.173   4.591
 1833SOL    HW1 5518   3.236   1.089   4.584
 1833SOL    HW2 5519   3.317   1.202   4.499
 1834SOL     OW 5520   3.719   0.833   4.101
 1834SOL    HW1 5521   3.761   0.769   4.165
 1834SOL    HW2 5522   3.681   0.782   4.023
 1835SOL     OW 5523   2.350   1.385   3.898
 1835SOL    HW1 5524   2.263   1.370   3.945
 1835SOL    HW2 5525   2.333   1.411   3.803
 1836SOL     OW 5526   3.526   1.280   4.381
 1836SOL    HW1 5527   3.625   1.288   4.395
 1836SOL    HW2 5528   3.481   1.364   4.412
 1837SOL     OW 5529   3.252   0.575   3.802
 1837SOL    HW1 5530   3.198   0.554   3.883
 1837SOL    HW2 5531   3.343   0.534   3.811
 1838SOL     OW 5532   2.389   0.256   4.052
 1838SOL    HW1 5533   2.416   0.197   3.977
 1838SOL    HW2 5534   2.389   0.351   4.021
 1839SOL     OW 5535   2.567   1.050   4.092
 1839SOL    HW1 5536   2.553   1.057   4.191
 1839SOL    HW2 5537   2.651   0.999   4.074
 1840SOL     OW 5538   2.229   1.100   4.225
 1840SOL    HW1 5539   2.222   1.183   4.169
 1840SOL    HW2 5540   2.233   1.020   4.165
 1841SOL     OW 5541   2.428   0.537   4.589
 1841SOL    HW1 5542   2.440   0.603   4.515
 1841SOL    HW2 5543   2.474   0.571   4.672
 1842SOL     OW 5544   3.114   1.348   4.112
 1842SOL    HW1 5545   3.164   1.425   4.152
 1842SOL    HW2 5546   3.019   1.350   4.144
 1843SOL     OW 5547   3.444   0.639   4.196
 1843SOL    HW1 5548   3.413   0.700   4.269
 1843SOL    HW2 5549   3.494   0.691   4.127
 1844SOL     OW 5550   3.071   0.525   3.999
 1844SOL    HW1 5551   3.084   0.441   4.053
 1844SOL    HW2 5552   3.042   0.599   4.059
 1845SOL     OW 5553   2.594   0.634   4.788
 1845SOL    HW1 5554   2.653   0.608   4.712
 1845SOL    HW2 5555   2.566   0.730   4.777
 1846SOL     OW 5556   2.169   0.063   4.342
 1846SOL    HW1 5557   2.158   0.157   4.375
 1846SOL    HW2 5558   2.164   0.000   4.419
 1847SOL     OW 5559   3.484   0.367   4.098
 1847SOL    HW1 5560   3.486   0.291   4.162
 1847SOL    HW2 5561   3.436   0.444   4.138
 1848SOL     OW 5562   3.402   0.274   3.849
 1848SOL    HW1 5563   3.341   0.199   3.872
 1848SOL    HW2 5564   3.424   0.326   3.932
 1849SOL     OW 5565   3.165   0.838   3.766
 1849SOL    HW1 5566   3.199   0.745   3.781
 1849SOL    HW2 5567   3.183   0.865   3.671
 1850SOL     OW 5568   2.930   1.333   4.573
 1850SOL    HW1 5569   2.937   1.249   4.518
 1850SOL    HW2 5570   2.992   1.402   4.537
 1851SOL     OW 5571   2.181   0.810   4.673
 1851SOL    HW1 5572   2.274   0.846   4.678
 1851SOL    HW2 5573   2.175   0.725   4.725
 1852SOL     OW 5574   1.870   1.326   3.924
 1852SOL    HW1 5575   1.777   1.347   3.893
 1852SOL    HW2 5576   1.880   1.227   3.937
 1853SOL     OW 5577   1.950   1.801   4.651
 1853SOL    HW1 5578   1.908   1.715   4.624
 1853SOL    HW2 5579   2.044   1.804   4.617
 1854SOL     OW 5580   2.366   1.568   4.634
 1854SOL    HW1 5581   2.432   1.642   4.643
 1854SOL    HW2 5582   2.410   1.489   4.592
 1855SOL     OW 5583   2.677   0.572   4.049
 1855SOL    HW1 5584   2.684   0.483   4.003
 1855SOL    HW2 5585   2.583   0.606   4.041
 1856SOL     OW 5586   2.335   0.500   3.915
 1856SOL    HW1 5587   2.396   0.580   3.919
 1856SOL    HW2 5588   2.240   0.531   3.922
 1857SOL     OW 5589   3.164   0.855   4.033
 1857SOL    HW1 5590   3.078   0.824   4.075
 1857SOL    HW2 5591   3.160   0.841   3.934
 1858SOL     OW 5592   3.621   1.747   4.878
 1858SOL    HW1 5593   3.682   1.777   4.805
 1858SOL    HW2 5594   3.583   1.658   4.856
 1859SOL     OW 5595   3.588   0.135   4.247
 1859SOL    HW1 5596   3.661   0.118   4.180
 1859SOL    HW2 5597   3.557   0.048   4.285
 1860SOL     OW 5598   3.250   1.573   4.201
 1860SOL    HW1 5599   3.317   1.585   4.127
 1860SOL    HW2 5600   3.210   1.662   4.224
 1861SOL     OW 5601   3.142   0.927   4.396
 1861SOL    HW1 5602   3.202   0.846   4.398
 1861SOL    HW2 5603   3.182   0.996   4.336
 1862SOL     OW 5604   2.534   1.616   3.878
 1862SOL    HW1 5605   2.543   1.626   3.779
 1862SOL    HW2 5606   2.494   1.527   3.899
 1863SOL     OW 5607   3.703   0.175   4.687
 1863SOL    HW1 5608   3.742   0.090   4.651
 1863SOL    HW2 5609   3.605   0.177   4.668
 1864SOL     OW 5610   2.125   0.326   4.444
 1864SOL    HW1 5611   2.046   0.377   4.410
 1864SOL    HW2 5612   2.116   0.311   4.542
 1865SOL     OW 5613   3.056   1.612   3.755
 1865SOL    HW1 5614   3.062   1.519   3.792
 1865SOL    HW2 5615   2.997   1.612   3.675
 1866SOL     OW 5616   2.778   0.910   4.015
 1866SOL    HW1 5617   2.841   0.948   3.947
 1866SOL    HW2 5618   2.818   0.827   4.054
 1867SOL     OW 5619   3.366   1.607   3.768
 1867SOL    HW1 5620   3.274   1.644   3.775
 1867SOL    HW2 5621   3.404   1.627   3.678
 1868SOL     OW 5622   2.901   1.098   4.420
 1868SOL    HW1 5623   2.831   1.051   4.474
 1868SOL    HW2 5624   2.960   1.030   4.377
 1869SOL     OW 5625   2.452   1.487   4.215
 1869SOL    HW1 5626   2.494   1.429   4.145
 1869SOL    HW2 5627   2.408   1.566   4.171
 1870SOL     OW 5628   2.117   1.348   4.014
 1870SOL    HW1 5629   2.021   1.349   3.987
 1870SOL    HW2 5630   2.129   1.401   4.098
 1871SOL     OW 5631   1.937   0.345   3.757
 1871SOL    HW1 5632   1.845   0.317   3.728
 1871SOL    HW2 5633   1.968   0.422   3.701
 1872SOL     OW 5634   1.934   0.166   4.042
 1872SOL    HW1 5635   1.917   0.249   3.988
 1872SOL    HW2 5636   2.024   0.129   4.020
 1873SOL     OW 5637   3.045   1.335   3.843
 1873SOL    HW1 5638   2.946   1.324   3.845
 1873SOL    HW2 5639   3.079   1.350   3.936
 1874SOL     OW 5640   3.536   0.883   4.978
 1874SOL    HW1 5641   3.509   0.794   4.941
 1874SOL    HW2 5642   3.537   0.951   4.905
 1875SOL     OW 5643   3.087   0.325   4.173
 1875SOL    HW1 5644   3.152   0.251   4.162
 1875SOL    HW2 5645   3.107   0.375   4.257
 1876SOL     OW 5646   2.456   0.745   4.376
 1876SOL    HW1 5647   2.506   0.830   4.357
 1876SOL    HW2 5648   2.368   0.747   4.328
 1877SOL     OW 5649   2.721   1.374   3.740
 1877SOL    HW1 5650   2.675   1.389   3.828
 1877SOL    HW2 5651   2.765   1.459   3.710
 1878SOL     OW 5652   2.523   1.790   4.677
 1878SOL    HW1 5653   2.477   1.878   4.664
 1878SOL    HW2 5654   2.622   1.802   4.670
 1879SOL     OW 5655   2.721   0.956   4.585
 1879SOL    HW1 5656   2.775   0.887   4.633
 1879SOL    HW2 5657   2.689   1.025   4.651
 1880SOL     OW 5658   2.945   0.984   3.811
 1880SOL    HW1 5659   2.922   1.037   3.729
 1880SOL    HW2 5660   3.026   0.928   3.792
 1881SOL     OW 5661   3.723   1.569   4.575
 1881SOL    HW1 5662   3.652   1.557   4.505
 1881SOL    HW2 5663   3.724   1.490   4.635
 1882SOL     OW 5664   1.941   1.240   4.377
 1882SOL    HW1 5665   1.940   1.193   4.465
 1882SOL    HW2 5666   2.023   1.212   4.326
 1883SOL     OW 5667   3.686   0.192   4.951
 1883SOL    HW1 5668   3.682   0.102   4.995
 1883SOL    HW2 5669   3.689   0.181   4.852
 1884SOL     OW 5670   2.290   0.424   4.244
 1884SOL    HW1 5671   2.320   0.352   4.182
 1884SOL    HW2 5672   2.251   0.384   4.327
 1885SOL     OW 5673   2.674   1.586   4.411
 1885SOL    HW1 5674   2.706   1.596   4.317
 1885SOL    HW2 5675   2.595   1.524   4.413
 1886SOL     OW 5676   2.632   1.330   4.025
 1886SOL    HW1 5677   2.586   1.243   4.042
 1886SOL    HW2 5678   2.723   1.327   4.066
 1887SOL     OW 5679   3.214   0.052   3.892
 1887SOL    HW1 5680   3.249   0.011   3.808
 1887SOL    HW2 5681   3.124   0.014   3.912
 1888SOL     OW 5682   3.162   0.453   4.415
 1888SOL    HW1 5683   3.103   0.533   4.419
 1888SOL    HW2 5684   3.177   0.418   4.508
 1889SOL     OW 5685   3.455   0.221   4.606
 1889SOL    HW1 5686   3.371   0.220   4.660
 1889SOL    HW2 5687   3.457   0.304   4.550
 1890SOL     OW 5688   1.901   1.077   4.024
 1890SOL    HW1 5689   2.000   1.066   4.015
 1890SOL    HW2 5690   1.861   0.991   4.056
 1891SOL     OW 5691   2.737   1.646   4.061
 1891SOL    HW1 5692   2.660   1.611   4.007
 1891SOL    HW2 5693   2.705   1.717   4.123
 1892SOL     OW 5694   2.092   2.490   0.113
 1892SOL    HW1 5695   1.999   2.488   0.150
 1892SOL    HW2 5696   2.093   2.451   0.021
 1893SOL     OW 5697   2.087   2.137   0.996
 1893SOL    HW1 5698   2.122   2.120   1.088
 1893SOL    HW2 5699   1.999   2.092   0.984
 1894SOL     OW 5700   1.881   2.230   0.647
 1894SOL    HW1 5701   1.799   2.273   0.686
 1894SOL    HW2 5702   1.853   2.157   0.584
 1895SOL     OW 5703   2.431   3.137   1.165
 1895SOL    HW1 5704   2.338   3.130   1.128
 1895SOL    HW2 5705   2.442   3.226   1.209
 1896SOL     OW 5706   3.417   3.373   0.703
 1896SOL    HW1 5707   3.360   3.357   0.784
 1896SOL    HW2 5708   3.358   3.383   0.623
 1897SOL     OW 5709   2.997   2.565   0.717
 1897SOL    HW1 5710   3.054   2.643   0.692
 1897SOL    HW2 5711   2.937   2.591   0.793
 1898SOL     OW 5712   3.617   2.469   0.231
 1898SOL    HW1 5713   3.605   2.456   0.132
 1898SOL    HW2 5714   3.587   2.388   0.280
 1899SOL     OW 5715   2.630   3.006   1.023
 1899SOL    HW1 5716   2.552   3.023   1.083
 1899SOL    HW2 5717   2.664   3.093   0.987
 1900SOL     OW 5718   2.712   2.660   1.823
 1900SOL    HW1 5719   2.708   2.736   1.888
 1900SOL    HW2 5720   2.734   2.696   1.732
 1901SOL     OW 5721   2.547   2.874   0.665
 1901SOL    HW1 5722   2.616   2.858   0.735
 1901SOL    HW2 5723   2.474   2.931   0.703
 1902SOL     OW 5724   2.548   3.023   1.803
 1902SOL    HW1 5725   2.608   3.102   1.817
 1902SOL    HW2 5726   2.462   3.054   1.762
 1903SOL     OW 5727   2.197   3.297   1.061
 1903SOL    HW1 5728   2.119   3.266   1.008
 1903SOL    HW2 5729   2.255   3.355   1.004
 1904SOL     OW 5730   3.322   3.367   1.339
 1904SOL    HW1 5731   3.346   3.461   1.365
 1904SOL    HW2 5732   3.306   3.313   1.421
 1905SOL     OW 5733   2.300   2.254   1.499
 1905SOL    HW1 5734   2.382   2.198   1.508
 1905SOL    HW2 5735   2.219   2.196   1.503
 1906SOL     OW 5736   3.465   2.309   0.737
 1906SOL    HW1 5737   3.391   2.355   0.687
 1906SOL    HW2 5738   3.516   2.377   0.790
 1907SOL     OW 5739   2.093   3.575   0.483
 1907SOL    HW1 5740   2.127   3.652   0.537
 1907SOL    HW2 5741   2.137   3.575   0.393
 1908SOL     OW 5742   2.989   3.203   1.690
 1908SOL    HW1 5743   3.036   3.203   1.778
 1908SOL    HW2 5744   2.941   3.116   1.679
 1909SOL     OW 5745   2.092   3.296   0.538
 1909SOL    HW1 5746   2.066   3.392   0.538
 1909SOL    HW2 5747   2.021   3.242   0.583
 1910SOL     OW 5748   2.102   2.953   0.886
 1910SOL    HW1 5749   2.116   2.869   0.938
 1910SOL    HW2 5750   2.047   3.017   0.941
 1911SOL     OW 5751   2.482   3.648   1.439
 1911SOL    HW1 5752   2.390   3.631   1.474
 1911SOL    HW2 5753   2.510   3.740   1.465
 1912SOL     OW 5754   2.468   2.826   0.123
 1912SOL    HW1 5755   2.475   2.910   0.069
 1912SOL    HW2 5756   2.514   2.839   0.211
 1913SOL     OW 5757   3.456   1.976   1.480
 1913SOL    HW1 5758   3.438   2.043   1.408
 1913SOL    HW2 5759   3.453   2.022   1.569
 1914SOL     OW 5760   1.984   2.505   0.563
 1914SOL    HW1 5761   1.939   2.417   0.580
 1914SOL    HW2 5762   1.983   2.559   0.647
 1915SOL     OW 5763   3.704   3.629   0.359
 1915SOL    HW1 5764   3.758   3.600   0.439
 1915SOL    HW2 5765   3.734   3.719   0.330
 1916SOL     OW 5766   3.551   2.784   0.612
 1916SOL    HW1 5767   3.646   2.755   0.620
 1916SOL    HW2 5768   3.543   2.849   0.537
 1917SOL     OW 5769   3.503   2.970   0.432
 1917SOL    HW1 5770   3.589   2.972   0.380
 1917SOL    HW2 5771   3.517   3.017   0.520
 1918SOL     OW 5772   1.975   2.599   1.597
 1918SOL    HW1 5773   2.063   2.586   1.642
 1918SOL    HW2 5774   1.962   2.696   1.575
 1919SOL     OW 5775   2.475   3.227   0.726
 1919SOL    HW1 5776   2.426   3.140   0.735
 1919SOL    HW2 5777   2.452   3.270   0.639
 1920SOL     OW 5778   3.155   3.090   1.423
 1920SOL    HW1 5779   3.192   3.017   1.365
 1920SOL    HW2 5780   3.207   3.095   1.508
 1921SOL     OW 5781   2.671   1.866   0.502
 1921SOL    HW1 5782   2.711   1.957   0.493
 1921SOL    HW2 5783   2.571   1.874   0.508
 1922SOL     OW 5784   2.059   2.838   1.264
 1922SOL    HW1 5785   2.148   2.793   1.250
 1922SOL    HW2 5786   1.986   2.773   1.245
 1923SOL     OW 5787   3.387   2.861   0.190
 1923SOL    HW1 5788   3.324   2.785   0.203
 1923SOL    HW2 5789   3.435   2.879   0.276
 1924SOL     OW 5790   3.049   3.654   1.616
 1924SOL    HW1 5791   3.073   3.714   1.540
 1924SOL    HW2 5792   3.056   3.559   1.586
 1925SOL     OW 5793   2.179   2.113   1.801
 1925SOL    HW1 5794   2.250   2.184   1.807
 1925SOL    HW2 5795   2.091   2.152   1.829
 1926SOL     OW 5796   3.328   3.279   0.953
 1926SOL    HW1 5797   3.269   3.285   1.033
 1926SOL    HW2 5798   3.313   3.191   0.907
 1927SOL     OW 5799   3.529   3.576   0.572
 1927SOL    HW1 5800   3.488   3.553   0.484
 1927SOL    HW2 5801   3.511   3.502   0.637
 1928SOL     OW 5802   2.460   2.591   0.270
 1928SOL    HW1 5803   2.484   2.660   0.202
 1928SOL    HW2 5804   2.382   2.624   0.324
 1929SOL     OW 5805   3.143   2.207   0.944
 1929SOL    HW1 5806   3.057   2.157   0.931
 1929SOL    HW2 5807   3.205   2.153   1.000
 1930SOL     OW 5808   3.438   3.524   0.307
 1930SOL    HW1 5809   3.527   3.570   0.310
 1930SOL    HW2 5810   3.417   3.500   0.212
 1931SOL     OW 5811   2.669   2.467   1.465
 1931SOL    HW1 5812   2.622   2.464   1.554
 1931SOL    HW2 5813   2.618   2.412   1.399
 1932SOL     OW 5814   3.256   2.331   1.674
 1932SOL    HW1 5815   3.236   2.374   1.762
 1932SOL    HW2 5816   3.334   2.269   1.683
 1933SOL     OW 5817   2.835   2.752   1.572
 1933SOL    HW1 5818   2.881   2.668   1.543
 1933SOL    HW2 5819   2.779   2.786   1.497
 1934SOL     OW 5820   2.853   2.272   1.242
 1934SOL    HW1 5821   2.776   2.306   1.296
 1934SOL    HW2 5822   2.819   2.221   1.163
 1935SOL     OW 5823   2.903   2.563   0.429
 1935SOL    HW1 5824   2.929   2.559   0.525
 1935SOL    HW2 5825   2.818   2.512   0.415
 1936SOL     OW 5826   1.938   2.673   0.789
 1936SOL    HW1 5827   2.037   2.661   0.798
 1936SOL    HW2 5828   1.914   2.768   0.810
 1937SOL     OW 5829   1.992   3.683   1.571
 1937SOL    HW1 5830   1.982   3.668   1.670
 1937SOL    HW2 5831   1.906   3.719   1.535
 1938SOL     OW 5832   2.727   2.210   0.195
 1938SOL    HW1 5833   2.786   2.273   0.146
 1938SOL    HW2 5834   2.746   2.116   0.166
 1939SOL     OW 5835   3.581   2.447   1.831
 1939SOL    HW1 5836   3.555   2.536   1.795
 1939SOL    HW2 5837   3.579   2.379   1.758
 1940SOL     OW 5838   3.224   3.006   0.545
 1940SOL    HW1 5839   3.307   2.977   0.497
 1940SOL    HW2 5840   3.175   3.073   0.489
 1941SOL     OW 5841   2.412   2.058   0.885
 1941SOL    HW1 5842   2.407   2.053   0.985
 1941SOL    HW2 5843   2.414   2.154   0.856
 1942SOL     OW 5844   2.870   3.318   0.477
 1942SOL    HW1 5845   2.824   3.390   0.425
 1942SOL    HW2 5846   2.866   3.338   0.575
 1943SOL     OW 5847   2.213   3.663   0.853
 1943SOL    HW1 5848   2.263   3.577   0.859
 1943SOL    HW2 5849   2.278   3.740   0.850
 1944SOL     OW 5850   3.657   2.928   0.873
 1944SOL    HW1 5851   3.595   2.913   0.797
 1944SOL    HW2 5852   3.605   2.939   0.958
 1945SOL     OW 5853   3.089   3.412   1.506
 1945SOL    HW1 5854   3.095   3.335   1.570
 1945SOL    HW2 5855   3.037   3.386   1.426
 1946SOL     OW 5856   2.183   2.805   0.242
 1946SOL    HW1 5857   2.265   2.844   0.200
 1946SOL    HW2 5858   2.156   2.723   0.193
 1947SOL     OW 5859   3.320   2.597   0.728
 1947SOL    HW1 5860   3.315   2.532   0.803
 1947SOL    HW2 5861   3.400   2.656   0.741
 1948SOL     OW 5862   2.323   3.128   1.727
 1948SOL    HW1 5863   2.273   3.129   1.641
 1948SOL    HW2 5864   2.260   3.110   1.803
 1949SOL     OW 5865   2.973   3.638   0.237
 1949SOL    HW1 5866   2.913   3.576   0.287
 1949SOL    HW2 5867   3.004   3.594   0.152
 1950SOL     OW 5868   2.064   2.147   1.498
 1950SOL    HW1 5869   1.984   2.207   1.485
 1950SOL    HW2 5870   2.054   2.098   1.584
 1951SOL     OW 5871   3.494   3.239   0.081
 1951SOL    HW1 5872   3.462   3.333   0.071
 1951SOL    HW2 5873   3.418   3.176   0.069
 1952SOL     OW 5874   2.326   3.605   0.323
 1952SOL    HW1 5875   2.359   3.644   0.409
 1952SOL    HW2 5876   2.402   3.598   0.258
 1953SOL     OW 5877   3.262   1.969   0.426
 1953SOL    HW1 5878   3.238   1.932   0.336
 1953SOL    HW2 5879   3.361   1.985   0.430
 1954SOL     OW 5880   2.111   3.647   1.241
 1954SOL    HW1 5881   2.168   3.582   1.291
 1954SOL    HW2 5882   2.095   3.614   1.148
 1955SOL     OW 5883   2.802   3.560   0.904
 1955SOL    HW1 5884   2.882   3.503   0.925
 1955SOL    HW2 5885   2.753   3.520   0.827
 1956SOL     OW 5886   2.244   2.562   0.480
 1956SOL    HW1 5887   2.289   2.472   0.477
 1956SOL    HW2 5888   2.150   2.551   0.513
 1957SOL     OW 5889   3.409   2.084   1.729
 1957SOL    HW1 5890   3.404   2.121   1.821
 1957SOL    HW2 5891   3.337   2.015   1.717
 1958SOL     OW 5892   2.476   1.984   0.117
 1958SOL    HW1 5893   2.574   1.962   0.124
 1958SOL    HW2 5894   2.445   1.967   0.024
 1959SOL     OW 5895   2.643   2.126   1.749
 1959SOL    HW1 5896   2.710   2.065   1.792
 1959SOL    HW2 5897   2.570   2.145   1.814
 1960SOL     OW 5898   2.750   3.376   1.195
 1960SOL    HW1 5899   2.727   3.351   1.101
 1960SOL    HW2 5900   2.811   3.307   1.234
 1961SOL     OW 5901   3.213   2.452   1.433
 1961SOL    HW1 5902   3.241   2.409   1.518
 1961SOL    HW2 5903   3.238   2.548   1.434
 1962SOL     OW 5904   2.665   3.264   0.924
 1962SOL    HW1 5905   2.755   3.278   0.882
 1962SOL    HW2 5906   2.594   3.266   0.853
 1963SOL     OW 5907   2.784   2.365   0.899
 1963SOL    HW1 5908   2.759   2.356   0.803
 1963SOL    HW2 5909   2.832   2.283   0.930
 1964SOL     OW 5910   2.401   1.926   0.512
 1964SOL    HW1 5911   2.320   1.927   0.570
 1964SOL    HW2 5912   2.404   2.009   0.457
 1965SOL     OW 5913   3.296   3.050   0.041
 1965SOL    HW1 5914   3.328   2.974   0.098
 1965SOL    HW2 5915   3.204   3.077   0.071
 1966SOL     OW 5916   2.159   1.897   0.171
 1966SOL    HW1 5917   2.208   1.981   0.150
 1966SOL    HW2 5918   2.221   1.832   0.216
 1967SOL     OW 5919   2.797   2.098   0.480
 1967SOL    HW1 5920   2.749   2.139   0.402
 1967SOL    HW2 5921   2.896   2.096   0.461
 1968SOL     OW 5922   2.938   2.545   1.464
 1968SOL    HW1 5923   2.858   2.484   1.467
 1968SOL    HW2 5924   3.019   2.492   1.440
 1969SOL     OW 5925   3.089   3.432   0.793
 1969SOL    HW1 5926   3.110   3.506   0.728
 1969SOL    HW2 5927   3.157   3.432   0.866
 1970SOL     OW 5928   2.321   3.014   0.741
 1970SOL    HW1 5929   2.250   2.987   0.806
 1970SOL    HW2 5930   2.295   2.986   0.648
 1971SOL     OW 5931   3.133   3.659   0.591
 1971SOL    HW1 5932   3.177   3.723   0.527
 1971SOL    HW2 5933   3.083   3.711   0.661
 1972SOL     OW 5934   2.894   2.411   0.016
 1972SOL    HW1 5935   2.853   2.493  -0.023
 1972SOL    HW2 5936   2.958   2.437   0.089
 1973SOL     OW 5937   1.940   2.418   1.386
 1973SOL    HW1 5938   2.032   2.417   1.345
 1973SOL    HW2 5939   1.934   2.492   1.453
 1974SOL     OW 5940   2.423   2.084   1.147
 1974SOL    HW1 5941   2.461   2.000   1.184
 1974SOL    HW2 5942   2.335   2.103   1.191
 1975SOL     OW 5943   2.728   2.316   0.642
 1975SOL    HW1 5944   2.696   2.388   0.580
 1975SOL    HW2 5945   2.752   2.235   0.589
 1976SOL     OW 5946   2.879   1.901   0.753
 1976SOL    HW1 5947   2.807   1.906   0.684
 1976SOL    HW2 5948   2.855   1.832   0.822
 1977SOL     OW 5949   3.291   3.035   0.867
 1977SOL    HW1 5950   3.236   2.951   0.860
 1977SOL    HW2 5951   3.317   3.064   0.775
 1978SOL     OW 5952   3.328   2.452   0.992
 1978SOL    HW1 5953   3.298   2.357   0.999
 1978SOL    HW2 5954   3.401   2.468   1.058
 1979SOL     OW 5955   3.719   2.695   0.377
 1979SOL    HW1 5956   3.761   2.631   0.441
 1979SOL    HW2 5957   3.681   2.644   0.299
 1980SOL     OW 5958   2.350   3.247   0.174
 1980SOL    HW1 5959   2.263   3.232   0.221
 1980SOL    HW2 5960   2.333   3.273   0.079
 1981SOL     OW 5961   3.526   3.142   0.657
 1981SOL    HW1 5962   3.625   3.150   0.671
 1981SOL    HW2 5963   3.481   3.226   0.688
 1982SOL     OW 5964   3.252   2.437   0.078
 1982SOL    HW1 5965   3.198   2.416   0.159
 1982SOL    HW2 5966   3.343   2.396   0.087
 1983SOL     OW 5967   2.389   2.118   0.328
 1983SOL    HW1 5968   2.416   2.059   0.253
 1983SOL    HW2 5969   2.389   2.213   0.297
 1984SOL     OW 5970   3.616   3.085   1.588
 1984SOL    HW1 5971   3.707   3.046   1.575
 1984SOL    HW2 5972   3.624   3.181   1.612
 1985SOL     OW 5973   2.926   3.209   1.340
 1985SOL    HW1 5974   2.846   3.186   1.395
 1985SOL    HW2 5975   3.009   3.183   1.389
 1986SOL     OW 5976   3.454   3.491   1.625
 1986SOL    HW1 5977   3.481   3.525   1.535
 1986SOL    HW2 5978   3.533   3.453   1.671
 1987SOL     OW 5979   2.973   3.057   1.100
 1987SOL    HW1 5980   2.933   3.101   1.181
 1987SOL    HW2 5981   2.932   3.094   1.017
 1988SOL     OW 5982   3.500   2.961   1.079
 1988SOL    HW1 5983   3.505   3.042   1.138
 1988SOL    HW2 5984   3.414   2.963   1.028
 1989SOL     OW 5985   2.777   1.951   1.402
 1989SOL    HW1 5986   2.802   1.931   1.307
 1989SOL    HW2 5987   2.849   2.007   1.444
 1990SOL     OW 5988   2.842   2.978   1.719
 1990SOL    HW1 5989   2.743   2.984   1.729
 1990SOL    HW2 5990   2.865   2.898   1.663
 1991SOL     OW 5991   2.567   2.912   0.368
 1991SOL    HW1 5992   2.553   2.919   0.467
 1991SOL    HW2 5993   2.651   2.861   0.350
 1992SOL     OW 5994   2.272   2.675   1.251
 1992SOL    HW1 5995   2.358   2.687   1.301
 1992SOL    HW2 5996   2.230   2.588   1.278
 1993SOL     OW 5997   3.136   2.248   1.262
 1993SOL    HW1 5998   3.157   2.322   1.326
 1993SOL    HW2 5999   3.047   2.265   1.219
 1994SOL     OW 6000   1.926   3.426   1.331
 1994SOL    HW1 6001   1.880   3.508   1.297
 1994SOL    HW2 6002   2.024   3.445   1.340
 1995SOL     OW 6003   2.229   2.962   0.501
 1995SOL    HW1 6004   2.222   3.045   0.445
 1995SOL    HW2 6005   2.233   2.882   0.441
 1996SOL     OW 6006   2.428   2.399   0.865
 1996SOL    HW1 6007   2.440   2.465   0.791
 1996SOL    HW2 6008   2.474   2.433   0.948
 1997SOL     OW 6009   3.114   3.210   0.388
 1997SOL    HW1 6010   3.164   3.287   0.428
 1997SOL    HW2 6011   3.019   3.212   0.420
 1998SOL     OW 6012   3.134   3.307   1.142
 1998SOL    HW1 6013   3.181   3.320   1.229
 1998SOL    HW2 6014   3.068   3.233   1.151
 1999SOL     OW 6015   3.444   2.501   0.472
 1999SOL    HW1 6016   3.413   2.562   0.545
 1999SOL    HW2 6017   3.494   2.553   0.403
 2000SOL     OW 6018   2.216   3.372   1.329
 2000SOL    HW1 6019   2.195   3.328   1.242
 2000SOL    HW2 6020   2.313   3.398   1.332
 2001SOL     OW 6021   2.264   2.613   1.598
 2001SOL    HW1 6022   2.332   2.668   1.551
 2001SOL    HW2 6023   2.304   2.525   1.625
 2002SOL     OW 6024   3.449   2.641   1.670
 2002SOL    HW1 6025   3.357   2.679   1.665
 2002SOL    HW2 6026   3.509   2.688   1.605
 2003SOL     OW 6027   2.875   1.967   1.770
 2003SOL    HW1 6028   2.881   2.052   1.718
 2003SOL    HW2 6029   2.907   1.891   1.713
 2004SOL     OW 6030   2.366   1.912   1.740
 2004SOL    HW1 6031   2.324   1.855   1.670
 2004SOL    HW2 6032   2.300   1.981   1.772
 2005SOL     OW 6033   2.435   2.732   1.029
 2005SOL    HW1 6034   2.479   2.821   1.020
 2005SOL    HW2 6035   2.372   2.732   1.106
 2006SOL     OW 6036   3.222   2.724   1.045
 2006SOL    HW1 6037   3.147   2.724   0.979
 2006SOL    HW2 6038   3.259   2.632   1.054
 2007SOL     OW 6039   3.071   2.387   0.275
 2007SOL    HW1 6040   3.084   2.303   0.329
 2007SOL    HW2 6041   3.042   2.461   0.335
 2008SOL     OW 6042   2.169   2.075   1.231
 2008SOL    HW1 6043   2.146   2.112   1.321
 2008SOL    HW2 6044   2.139   1.980   1.225
 2009SOL     OW 6045   1.899   3.172   1.282
 2009SOL    HW1 6046   1.952   3.123   1.350
 2009SOL    HW2 6047   1.921   3.270   1.287
 2010SOL     OW 6048   2.594   2.496   1.064
 2010SOL    HW1 6049   2.653   2.470   0.988
 2010SOL    HW2 6050   2.566   2.592   1.053
 2011SOL     OW 6051   3.590   2.797   1.854
 2011SOL    HW1 6052   3.544   2.790   1.765
 2011SOL    HW2 6053   3.528   2.841   1.920
 2012SOL     OW 6054   2.169   1.925   0.618
 2012SOL    HW1 6055   2.158   2.019   0.651
 2012SOL    HW2 6056   2.164   1.862   0.695
 2013SOL     OW 6057   3.484   2.229   0.374
 2013SOL    HW1 6058   3.486   2.153   0.438
 2013SOL    HW2 6059   3.436   2.306   0.414
 2014SOL     OW 6060   2.885   2.628   0.966
 2014SOL    HW1 6061   2.900   2.649   1.062
 2014SOL    HW2 6062   2.855   2.533   0.957
 2015SOL     OW 6063   2.842   3.435   1.700
 2015SOL    HW1 6064   2.822   3.479   1.612
 2015SOL    HW2 6065   2.881   3.344   1.684
 2016SOL     OW 6066   3.721   3.380   1.605
 2016SOL    HW1 6067   3.735   3.407   1.510
 2016SOL    HW2 6068   3.804   3.402   1.658
 2017SOL     OW 6069   2.212   2.760   1.804
 2017SOL    HW1 6070   2.288   2.804   1.852
 2017SOL    HW2 6071   2.247   2.713   1.722
 2018SOL     OW 6072   3.402   2.136   0.125
 2018SOL    HW1 6073   3.341   2.061   0.148
 2018SOL    HW2 6074   3.424   2.188   0.208
 2019SOL     OW 6075   3.165   2.700   0.042
 2019SOL    HW1 6076   3.199   2.607   0.057
 2019SOL    HW2 6077   3.183   2.727  -0.053
 2020SOL     OW 6078   2.930   3.195   0.849
 2020SOL    HW1 6079   2.937   3.111   0.794
 2020SOL    HW2 6080   2.992   3.264   0.813
 2021SOL     OW 6081   2.181   2.672   0.949
 2021SOL    HW1 6082   2.274   2.708   0.954
 2021SOL    HW2 6083   2.175   2.587   1.001
 2022SOL     OW 6084   2.201   2.371   1.006
 2022SOL    HW1 6085   2.149   2.288   0.989
 2022SOL    HW2 6086   2.278   2.376   0.942
 2023SOL     OW 6087   3.000   2.242   1.678
 2023SOL    HW1 6088   2.955   2.305   1.742
 2023SOL    HW2 6089   3.093   2.273   1.661
 2024SOL     OW 6090   3.022   2.069   1.477
 2024SOL    HW1 6091   3.022   2.133   1.554
 2024SOL    HW2 6092   3.050   2.117   1.394
 2025SOL     OW 6093   1.870   3.188   0.200
 2025SOL    HW1 6094   1.777   3.209   0.169
 2025SOL    HW2 6095   1.880   3.089   0.213
 2026SOL     OW 6096   1.950   3.663   0.927
 2026SOL    HW1 6097   1.908   3.577   0.900
 2026SOL    HW2 6098   2.044   3.666   0.893
 2027SOL     OW 6099   2.366   3.430   0.910
 2027SOL    HW1 6100   2.432   3.504   0.919
 2027SOL    HW2 6101   2.410   3.351   0.868
 2028SOL     OW 6102   2.864   2.658   1.238
 2028SOL    HW1 6103   2.905   2.626   1.324
 2028SOL    HW2 6104   2.768   2.631   1.235
 2029SOL     OW 6105   1.902   2.406   1.114
 2029SOL    HW1 6106   1.987   2.373   1.073
 2029SOL    HW2 6107   1.915   2.421   1.212
 2030SOL     OW 6108   2.051   2.382   1.722
 2030SOL    HW1 6109   2.110   2.342   1.652
 2030SOL    HW2 6110   1.993   2.453   1.681
 2031SOL     OW 6111   3.231   2.812   1.660
 2031SOL    HW1 6112   3.270   2.901   1.680
 2031SOL    HW2 6113   3.241   2.792   1.563
 2032SOL     OW 6114   2.677   2.434   0.325
 2032SOL    HW1 6115   2.684   2.345   0.279
 2032SOL    HW2 6116   2.583   2.468   0.317
 2033SOL     OW 6117   3.519   2.466   1.206
 2033SOL    HW1 6118   3.481   2.397   1.268
 2033SOL    HW2 6119   3.601   2.430   1.162
 2034SOL     OW 6120   2.114   3.426   1.744
 2034SOL    HW1 6121   2.084   3.483   1.820
 2034SOL    HW2 6122   2.107   3.329   1.770
 2035SOL     OW 6123   2.533   2.326   1.269
 2035SOL    HW1 6124   2.499   2.237   1.239
 2035SOL    HW2 6125   2.559   2.380   1.189
 2036SOL     OW 6126   2.792   3.540   1.465
 2036SOL    HW1 6127   2.768   3.522   1.370
 2036SOL    HW2 6128   2.822   3.634   1.475
 2037SOL     OW 6129   2.335   2.362   0.191
 2037SOL    HW1 6130   2.396   2.442   0.195
 2037SOL    HW2 6131   2.240   2.393   0.198
 2038SOL     OW 6132   2.021   2.999   1.466
 2038SOL    HW1 6133   2.043   2.938   1.542
 2038SOL    HW2 6134   2.031   2.950   1.380
 2039SOL     OW 6135   3.209   2.921   1.234
 2039SOL    HW1 6136   3.233   2.858   1.160
 2039SOL    HW2 6137   3.119   2.961   1.216
 2040SOL     OW 6138   3.164   2.717   0.309
 2040SOL    HW1 6139   3.078   2.686   0.351
 2040SOL    HW2 6140   3.160   2.703   0.210
 2041SOL     OW 6141   3.621   3.609   1.154
 2041SOL    HW1 6142   3.682   3.639   1.081
 2041SOL    HW2 6143   3.583   3.520   1.132
 2042SOL     OW 6144   3.114   3.593   1.128
 2042SOL    HW1 6145   3.198   3.598   1.074
 2042SOL    HW2 6146   3.091   3.497   1.146
 2043SOL     OW 6147   1.945   3.120   1.022
 2043SOL    HW1 6148   1.940   3.119   1.122
 2043SOL    HW2 6149   1.862   3.079   0.984
 2044SOL     OW 6150   2.550   3.524   1.716
 2044SOL    HW1 6151   2.494   3.605   1.725
 2044SOL    HW2 6152   2.602   3.528   1.630
 2045SOL     OW 6153   2.765   1.948   0.133
 2045SOL    HW1 6154   2.816   1.949   0.047
 2045SOL    HW2 6155   2.821   1.906   0.204
 2046SOL     OW 6156   3.588   1.997   0.523
 2046SOL    HW1 6157   3.661   1.980   0.456
 2046SOL    HW2 6158   3.557   1.910   0.561
 2047SOL     OW 6159   3.250   3.435   0.477
 2047SOL    HW1 6160   3.317   3.447   0.403
 2047SOL    HW2 6161   3.210   3.524   0.500
 2048SOL     OW 6162   1.992   3.656   1.851
 2048SOL    HW1 6163   1.951   3.582   1.904
 2048SOL    HW2 6164   2.056   3.707   1.909
 2049SOL     OW 6165   3.142   2.789   0.672
 2049SOL    HW1 6166   3.202   2.708   0.674
 2049SOL    HW2 6167   3.182   2.858   0.612
 2050SOL     OW 6168   2.692   3.135   1.422
 2050SOL    HW1 6169   2.687   3.168   1.517
 2050SOL    HW2 6170   2.606   3.154   1.376
 2051SOL     OW 6171   2.534   3.478   0.154
 2051SOL    HW1 6172   2.543   3.488   0.055
 2051SOL    HW2 6173   2.494   3.389   0.175
 2052SOL     OW 6174   3.512   3.582   1.394
 2052SOL    HW1 6175   3.565   3.592   1.310
 2052SOL    HW2 6176   3.485   3.672   1.428
 2053SOL     OW 6177   3.703   2.037   0.963
 2053SOL    HW1 6178   3.742   1.952   0.927
 2053SOL    HW2 6179   3.605   2.039   0.944
 2054SOL     OW 6180   2.125   2.188   0.720
 2054SOL    HW1 6181   2.046   2.239   0.686
 2054SOL    HW2 6182   2.116   2.173   0.818
 2055SOL     OW 6183   3.056   3.474   0.031
 2055SOL    HW1 6184   3.062   3.381   0.068
 2055SOL    HW2 6185   2.997   3.474  -0.049
 2056SOL     OW 6186   2.684   2.864   1.372
 2056SOL    HW1 6187   2.724   2.863   1.280
 2056SOL    HW2 6188   2.694   2.956   1.412
 2057SOL     OW 6189   2.778   2.772   0.291
 2057SOL    HW1 6190   2.841   2.810   0.223
 2057SOL    HW2 6191   2.818   2.689   0.330
 2058SOL     OW 6192   3.366   3.469   0.044
 2058SOL    HW1 6193   3.274   3.506   0.051
 2058SOL    HW2 6194   3.404   3.489  -0.046
 2059SOL     OW 6195   2.234   3.150   1.490
 2059SOL    HW1 6196   2.221   3.243   1.456
 2059SOL    HW2 6197   2.150   3.098   1.477
 2060SOL     OW 6198   3.476   3.154   1.289
 2060SOL    HW1 6199   3.536   3.157   1.369
 2060SOL    HW2 6200   3.401   3.218   1.302
 2061SOL     OW 6201   2.901   2.960   0.696
 2061SOL    HW1 6202   2.831   2.913   0.750
 2061SOL    HW2 6203   2.960   2.892   0.653
 2062SOL     OW 6204   2.876   2.098   0.971
 2062SOL    HW1 6205   2.868   2.062   0.878
 2062SOL    HW2 6206   2.874   2.022   1.036
 2063SOL     OW 6207   2.452   3.349   0.491
 2063SOL    HW1 6208   2.494   3.291   0.421
 2063SOL    HW2 6209   2.408   3.428   0.447
 2064SOL     OW 6210   3.571   2.247   1.381
 2064SOL    HW1 6211   3.644   2.316   1.385
 2064SOL    HW2 6212   3.599   2.172   1.322
 2065SOL     OW 6213   2.117   3.210   0.290
 2065SOL    HW1 6214   2.021   3.211   0.263
 2065SOL    HW2 6215   2.129   3.263   0.374
 2066SOL     OW 6216   1.967   2.875   1.726
 2066SOL    HW1 6217   1.890   2.842   1.780
 2066SOL    HW2 6218   2.052   2.845   1.768
 2067SOL     OW 6219   2.534   2.065   1.489
 2067SOL    HW1 6220   2.624   2.049   1.449
 2067SOL    HW2 6221   2.542   2.070   1.588
 2068SOL     OW 6222   3.302   2.718   1.398
 2068SOL    HW1 6223   3.245   2.770   1.335
 2068SOL    HW2 6224   3.398   2.730   1.374
 2069SOL     OW 6225   3.045   3.197   0.119
 2069SOL    HW1 6226   2.946   3.186   0.121
 2069SOL    HW2 6227   3.079   3.212   0.212
 2070SOL     OW 6228   2.475   2.704   1.431
 2070SOL    HW1 6229   2.531   2.785   1.414
 2070SOL    HW2 6230   2.534   2.624   1.434
 2071SOL     OW 6231   3.355   3.629   0.959
 2071SOL    HW1 6232   3.388   3.693   0.890
 2071SOL    HW2 6233   3.421   3.623   1.034
 2072SOL     OW 6234   2.578   2.427   1.708
 2072SOL    HW1 6235   2.597   2.492   1.782
 2072SOL    HW2 6236   2.638   2.347   1.717
 2073SOL     OW 6237   3.312   3.082   1.633
 2073SOL    HW1 6238   3.303   3.072   1.732
 2073SOL    HW2 6239   3.408   3.075   1.607
 2074SOL     OW 6240   2.252   3.603   1.560
 2074SOL    HW1 6241   2.161   3.644   1.558
 2074SOL    HW2 6242   2.245   3.509   1.592
 2075SOL     OW 6243   3.536   2.745   1.254
 2075SOL    HW1 6244   3.509   2.656   1.217
 2075SOL    HW2 6245   3.537   2.813   1.181
 2076SOL     OW 6246   3.087   2.187   0.449
 2076SOL    HW1 6247   3.152   2.113   0.438
 2076SOL    HW2 6248   3.107   2.237   0.533
 2077SOL     OW 6249   2.456   2.607   0.652
 2077SOL    HW1 6250   2.506   2.692   0.633
 2077SOL    HW2 6251   2.368   2.609   0.604
 2078SOL     OW 6252   3.639   2.204   1.642
 2078SOL    HW1 6253   3.622   2.235   1.548
 2078SOL    HW2 6254   3.555   2.167   1.680
 2079SOL     OW 6255   3.592   2.796   1.517
 2079SOL    HW1 6256   3.630   2.887   1.532
 2079SOL    HW2 6257   3.584   2.779   1.418
 2080SOL     OW 6258   2.721   3.236   0.016
 2080SOL    HW1 6259   2.675   3.251   0.104
 2080SOL    HW2 6260   2.765   3.321  -0.014
 2081SOL     OW 6261   2.523   3.652   0.953
 2081SOL    HW1 6262   2.477   3.740   0.940
 2081SOL    HW2 6263   2.622   3.664   0.946
 2082SOL     OW 6264   2.721   2.818   0.861
 2082SOL    HW1 6265   2.775   2.749   0.909
 2082SOL    HW2 6266   2.689   2.887   0.927
 2083SOL     OW 6267   2.945   2.846   0.087
 2083SOL    HW1 6268   2.922   2.899   0.005
 2083SOL    HW2 6269   3.026   2.790   0.068
 2084SOL     OW 6270   3.723   3.431   0.851
 2084SOL    HW1 6271   3.652   3.419   0.781
 2084SOL    HW2 6272   3.724   3.352   0.911
 2085SOL     OW 6273   2.083   3.176   1.844
 2085SOL    HW1 6274   2.018   3.103   1.823
 2085SOL    HW2 6275   2.087   3.190   1.942
 2086SOL     OW 6276   1.941   3.102   0.653
 2086SOL    HW1 6277   1.940   3.055   0.741
 2086SOL    HW2 6278   2.023   3.074   0.602
 2087SOL     OW 6279   2.534   3.253   1.624
 2087SOL    HW1 6280   2.456   3.203   1.662
 2087SOL    HW2 6281   2.531   3.348   1.655
 2088SOL     OW 6282   3.686   2.054   1.227
 2088SOL    HW1 6283   3.682   1.964   1.271
 2088SOL    HW2 6284   3.689   2.043   1.128
 2089SOL     OW 6285   2.290   2.286   0.520
 2089SOL    HW1 6286   2.320   2.214   0.458
 2089SOL    HW2 6287   2.251   2.246   0.603
 2090SOL     OW 6288   3.567   3.349   1.104
 2090SOL    HW1 6289   3.474   3.324   1.077
 2090SOL    HW2 6290   3.593   3.299   1.186
 2091SOL     OW 6291   2.179   2.409   1.280
 2091SOL    HW1 6292   2.217   2.350   1.352
 2091SOL    HW2 6293   2.219   2.383   1.192
 2092SOL     OW 6294   2.674   3.448   0.687
 2092SOL    HW1 6295   2.706   3.458   0.593
 2092SOL    HW2 6296   2.595   3.386   0.689
 2093SOL     OW 6297   3.286   2.076   1.112
 2093SOL    HW1 6298   3.338   2.011   1.167
 2093SOL    HW2 6299   3.237   2.139   1.173
 2094SOL     OW 6300   2.863   1.896   1.154
 2094SOL    HW1 6301   2.800   1.824   1.123
 2094SOL    HW2 6302   2.956   1.860   1.154
 2095SOL     OW 6303   2.632   3.192   0.301
 2095SOL    HW1 6304   2.586   3.105   0.318
 2095SOL    HW2 6305   2.723   3.189   0.342
 2096SOL     OW 6306   2.480   3.429   1.284
 2096SOL    HW1 6307   2.475   3.511   1.341
 2096SOL    HW2 6308   2.569   3.426   1.239
 2097SOL     OW 6309   3.214   1.914   0.168
 2097SOL    HW1 6310   3.249   1.873   0.084
 2097SOL    HW2 6311   3.124   1.876   0.188
 2098SOL     OW 6312   3.162   2.315   0.691
 2098SOL    HW1 6313   3.103   2.395   0.695
 2098SOL    HW2 6314   3.177   2.280   0.784
 2099SOL     OW 6315   3.455   2.083   0.882
 2099SOL    HW1 6316   3.371   2.082   0.936
 2099SOL    HW2 6317   3.457   2.166   0.826
 2100SOL     OW 6318   1.901   2.939   0.300
 2100SOL    HW1 6319   2.000   2.928   0.291
 2100SOL    HW2 6320   1.861   2.853   0.332
 2101SOL     OW 6321   2.737   3.508   0.337
 2101SOL    HW1 6322   2.660   3.473   0.283
 2101SOL    HW2 6323   2.705   3.579   0.399
 2102SOL     OW 6324   2.092   2.490   1.975
 2102SOL    HW1 6325   1.999   2.488   2.012
 2102SOL    HW2 6326   2.093   2.451   1.883
 2103SOL     OW 6327   2.087   2.137   2.858
 2103SOL    HW1 6328   2.122   2.120   2.950
 2103SOL    HW2 6329   1.999   2.092   2.846
 2104SOL     OW 6330   1.881   2.230   2.509
 2104SOL    HW1 6331   1.799   2.273   2.548
 2104SOL    HW2 6332   1.853   2.157   2.446
 2105SOL     OW 6333   2.431   3.137   3.027
 2105SOL    HW1 6334   2.338   3.130   2.990
 2105SOL    HW2 6335   2.442   3.226   3.071
 2106SOL     OW 6336   3.417   3.373   2.565
 2106SOL    HW1 6337   3.360   3.357   2.646
 2106SOL    HW2 6338   3.358   3.383   2.485
 2107SOL     OW 6339   2.997   2.565   2.579
 2107SOL    HW1 6340   3.054   2.643   2.554
 2107SOL    HW2 6341   2.937   2.591   2.655
 2108SOL     OW 6342   3.617   2.469   2.093
 2108SOL    HW1 6343   3.605   2.456   1.994
 2108SOL    HW2 6344   3.587   2.388   2.142
 2109SOL     OW 6345   2.630   3.006   2.885
 2109SOL    HW1 6346   2.552   3.023   2.945
 2109SOL    HW2 6347   2.664   3.093   2.849
 2110SOL     OW 6348   2.712   2.660   3.685
 2110SOL    HW1 6349   2.708   2.736   3.750
 2110SOL    HW2 6350   2.734   2.696   3.594
 2111SOL     OW 6351   2.547   2.874   2.527
 2111SOL    HW1 6352   2.616   2.858   2.597
 2111SOL    HW2 6353   2.474   2.931   2.565
 2112SOL     OW 6354   2.548   3.023   3.665
 2112SOL    HW1 6355   2.608   3.102   3.679
 2112SOL    HW2 6356   2.462   3.054   3.624
 2113SOL     OW 6357   2.197   3.297   2.923
 2113SOL    HW1 6358   2.119   3.266   2.870
 2113SOL    HW2 6359   2.255   3.355   2.866
 2114SOL     OW 6360   3.322   3.367   3.201
 2114SOL    HW1 6361   3.346   3.461   3.227
 2114SOL    HW2 6362   3.306   3.313   3.283
 2115SOL     OW 6363   2.300   2.254   3.361
 2115SOL    HW1 6364   2.382   2.198   3.370
 2115SOL    HW2 6365   2.219   2.196   3.365
 2116SOL     OW 6366   3.465   2.309   2.599
 2116SOL    HW1 6367   3.391   2.355   2.549
 2116SOL    HW2 6368   3.516   2.377   2.652
 2117SOL     OW 6369   2.093   3.575   2.345
 2117SOL    HW1 6370   2.127   3.652   2.399
 2117SOL    HW2 6371   2.137   3.575   2.255
 2118SOL     OW 6372   2.989   3.203   3.552
 2118SOL    HW1 6373   3.036   3.203   3.640
 2118SOL    HW2 6374   2.941   3.116   3.541
 2119SOL     OW 6375   2.092   3.296   2.400
 2119SOL    HW1 6376   2.066   3.392   2.400
 2119SOL    HW2 6377   2.021   3.242   2.445
 2120SOL     OW 6378   2.102   2.953   2.748
 2120SOL    HW1 6379   2.116   2.869   2.800
 2120SOL    HW2 6380   2.047   3.017   2.803
 2121SOL     OW 6381   2.482   3.648   3.301
 2121SOL    HW1 6382   2.390   3.631   3.336
 2121SOL    HW2 6383   2.510   3.740   3.327
 2122SOL     OW 6384   2.468   2.826   1.985
 2122SOL    HW1 6385   2.475   2.910   1.931
 2122SOL    HW2 6386   2.514   2.839   2.073
 2123SOL     OW 6387   3.456   1.976   3.342
 2123SOL    HW1 6388   3.438   2.043   3.270
 2123SOL    HW2 6389   3.453   2.022   3.431
 2124SOL     OW 6390   1.984   2.505   2.425
 2124SOL    HW1 6391   1.939   2.417   2.442
 2124SOL    HW2 6392   1.983   2.559   2.509
 2125SOL     OW 6393   3.704   3.629   2.221
 2125SOL    HW1 6394   3.758   3.600   2.301
 2125SOL    HW2 6395   3.734   3.719   2.192
 2126SOL     OW 6396   1.889   3.458   1.979
 2126SOL    HW1 6397   1.870   3.362   2.000
 2126SOL    HW2 6398   1.856   3.516   2.054
 2127SOL     OW 6399   3.551   2.784   2.474
 2127SOL    HW1 6400   3.646   2.755   2.482
 2127SOL    HW2 6401   3.543   2.849   2.399
 2128SOL     OW 6402   3.503   2.970   2.294
 2128SOL    HW1 6403   3.589   2.972   2.242
 2128SOL    HW2 6404   3.517   3.017   2.382
 2129SOL     OW 6405   1.975   2.599   3.459
 2129SOL    HW1 6406   2.063   2.586   3.504
 2129SOL    HW2 6407   1.962   2.696   3.437
 2130SOL     OW 6408   2.475   3.227   2.588
 2130SOL    HW1 6409   2.426   3.140   2.597
 2130SOL    HW2 6410   2.452   3.270   2.501
 2131SOL     OW 6411   3.155   3.090   3.285
 2131SOL    HW1 6412   3.192   3.017   3.227
 2131SOL    HW2 6413   3.207   3.095   3.370
 2132SOL     OW 6414   2.671   1.866   2.364
 2132SOL    HW1 6415   2.711   1.957   2.355
 2132SOL    HW2 6416   2.571   1.874   2.370
 2133SOL     OW 6417   2.059   2.838   3.126
 2133SOL    HW1 6418   2.148   2.793   3.112
 2133SOL    HW2 6419   1.986   2.773   3.107
 2134SOL     OW 6420   3.387   2.861   2.052
 2134SOL    HW1 6421   3.324   2.785   2.065
 2134SOL    HW2 6422   3.435   2.879   2.138
 2135SOL     OW 6423   3.049   3.654   3.478
 2135SOL    HW1 6424   3.073   3.714   3.402
 2135SOL    HW2 6425   3.056   3.559   3.448
 2136SOL     OW 6426   2.179   2.113   3.663
 2136SOL    HW1 6427   2.250   2.184   3.669
 2136SOL    HW2 6428   2.091   2.152   3.691
 2137SOL     OW 6429   3.328   3.279   2.815
 2137SOL    HW1 6430   3.269   3.285   2.895
 2137SOL    HW2 6431   3.313   3.191   2.769
 2138SOL     OW 6432   3.529   3.576   2.434
 2138SOL    HW1 6433   3.488   3.553   2.346
 2138SOL    HW2 6434   3.511   3.502   2.499
 2139SOL     OW 6435   3.143   2.207   2.806
 2139SOL    HW1 6436   3.057   2.157   2.793
 2139SOL    HW2 6437   3.205   2.153   2.862
 2140SOL     OW 6438   3.438   3.524   2.169
 2140SOL    HW1 6439   3.527   3.570   2.172
 2140SOL    HW2 6440   3.417   3.500   2.074
 2141SOL     OW 6441   2.669   2.467   3.327
 2141SOL    HW1 6442   2.622   2.464   3.416
 2141SOL    HW2 6443   2.618   2.412   3.261
 2142SOL     OW 6444   3.256   2.331   3.536
 2142SOL    HW1 6445   3.236   2.374   3.624
 2142SOL    HW2 6446   3.334   2.269   3.545
 2143SOL     OW 6447   2.835   2.752   3.434
 2143SOL    HW1 6448   2.881   2.668   3.405
 2143SOL    HW2 6449   2.779   2.786   3.359
 2144SOL     OW 6450   2.853   2.272   3.104
 2144SOL    HW1 6451   2.776   2.306   3.158
 2144SOL    HW2 6452   2.819   2.221   3.025
 2145SOL     OW 6453   2.903   2.563   2.291
 2145SOL    HW1 6454   2.929   2.559   2.387
 2145SOL    HW2 6455   2.818   2.512   2.277
 2146SOL     OW 6456   1.938   2.673   2.651
 2146SOL    HW1 6457   2.037   2.661   2.660
 2146SOL    HW2 6458   1.914   2.768   2.672
 2147SOL     OW 6459   1.992   3.683   3.433
 2147SOL    HW1 6460   1.982   3.668   3.532
 2147SOL    HW2 6461   1.906   3.719   3.397
 2148SOL     OW 6462   2.727   2.210   2.057
 2148SOL    HW1 6463   2.786   2.273   2.008
 2148SOL    HW2 6464   2.746   2.116   2.028
 2149SOL     OW 6465   3.581   2.447   3.693
 2149SOL    HW1 6466   3.555   2.536   3.657
 2149SOL    HW2 6467   3.579   2.379   3.620
 2150SOL     OW 6468   3.224   3.006   2.407
 2150SOL    HW1 6469   3.307   2.977   2.359
 2150SOL    HW2 6470   3.175   3.073   2.351
 2151SOL     OW 6471   2.412   2.058   2.747
 2151SOL    HW1 6472   2.407   2.053   2.847
 2151SOL    HW2 6473   2.414   2.154   2.718
 2152SOL     OW 6474   2.870   3.318   2.339
 2152SOL    HW1 6475   2.824   3.390   2.287
 2152SOL    HW2 6476   2.866   3.338   2.437
 2153SOL     OW 6477   2.213   3.663   2.715
 2153SOL    HW1 6478   2.263   3.577   2.721
 2153SOL    HW2 6479   2.278   3.740   2.712
 2154SOL     OW 6480   3.657   2.928   2.735
 2154SOL    HW1 6481   3.595   2.913   2.659
 2154SOL    HW2 6482   3.605   2.939   2.820
 2155SOL     OW 6483   3.089   3.412   3.368
 2155SOL    HW1 6484   3.095   3.335   3.432
 2155SOL    HW2 6485   3.037   3.386   3.288
 2156SOL     OW 6486   2.183   2.805   2.104
 2156SOL    HW1 6487   2.265   2.844   2.062
 2156SOL    HW2 6488   2.156   2.723   2.055
 2157SOL     OW 6489   3.320   2.597   2.590
 2157SOL    HW1 6490   3.315   2.532   2.665
 2157SOL    HW2 6491   3.400   2.656   2.603
 2158SOL     OW 6492   2.323   3.128   3.589
 2158SOL    HW1 6493   2.273   3.129   3.503
 2158SOL    HW2 6494   2.260   3.110   3.665
 2159SOL     OW 6495   2.973   3.638   2.099
 2159SOL    HW1 6496   2.913   3.576   2.149
 2159SOL    HW2 6497   3.004   3.594   2.014
 2160SOL     OW 6498   2.064   2.147   3.360
 2160SOL    HW1 6499   1.984   2.207   3.347
 2160SOL    HW2 6500   2.054   2.098   3.446
 2161SOL     OW 6501   3.494   3.239   1.943
 2161SOL    HW1 6502   3.462   3.333   1.933
 2161SOL    HW2 6503   3.418   3.176   1.931
 2162SOL     OW 6504   2.326   3.605   2.185
 2162SOL    HW1 6505   2.359   3.644   2.271
 2162SOL    HW2 6506   2.402   3.598   2.120
 2163SOL     OW 6507   3.262   1.969   2.288
 2163SOL    HW1 6508   3.238   1.932   2.198
 2163SOL    HW2 6509   3.361   1.985   2.292
 2164SOL     OW 6510   2.111   3.647   3.103
 2164SOL    HW1 6511   2.168   3.582   3.153
 2164SOL    HW2 6512   2.095   3.614   3.010
 2165SOL     OW 6513   2.802   3.560   2.766
 2165SOL    HW1 6514   2.882   3.503   2.787
 2165SOL    HW2 6515   2.753   3.520   2.689
 2166SOL     OW 6516   3.409   2.084   3.591
 2166SOL    HW1 6517   3.404   2.121   3.683
 2166SOL    HW2 6518   3.337   2.015   3.579
 2167SOL     OW 6519   2.476   1.984   1.979
 2167SOL    HW1 6520   2.574   1.962   1.986
 2167SOL    HW2 6521   2.445   1.967   1.886
 2168SOL     OW 6522   2.643   2.126   3.611
 2168SOL    HW1 6523   2.710   2.065   3.654
 2168SOL    HW2 6524   2.570   2.145   3.676
 2169SOL     OW 6525   2.750   3.376   3.057
 2169SOL    HW1 6526   2.727   3.351   2.963
 2169SOL    HW2 6527   2.811   3.307   3.096
 2170SOL     OW 6528   3.213   2.452   3.295
 2170SOL    HW1 6529   3.241   2.409   3.380
 2170SOL    HW2 6530   3.238   2.548   3.296
 2171SOL     OW 6531   2.665   3.264   2.786
 2171SOL    HW1 6532   2.755   3.278   2.744
 2171SOL    HW2 6533   2.594   3.266   2.715
 2172SOL     OW 6534   2.784   2.365   2.761
 2172SOL    HW1 6535   2.759   2.356   2.665
 2172SOL    HW2 6536   2.832   2.283   2.792
 2173SOL     OW 6537   2.401   1.926   2.374
 2173SOL    HW1 6538   2.320   1.927   2.432
 2173SOL    HW2 6539   2.404   2.009   2.319
 2174SOL     OW 6540   3.296   3.050   1.903
 2174SOL    HW1 6541   3.328   2.974   1.960
 2174SOL    HW2 6542   3.204   3.077   1.933
 2175SOL     OW 6543   2.159   1.897   2.033
 2175SOL    HW1 6544   2.208   1.981   2.012
 2175SOL    HW2 6545   2.221   1.832   2.078
 2176SOL     OW 6546   2.797   2.098   2.342
 2176SOL    HW1 6547   2.749   2.139   2.264
 2176SOL    HW2 6548   2.896   2.096   2.323
 2177SOL     OW 6549   2.938   2.545   3.326
 2177SOL    HW1 6550   2.858   2.484   3.329
 2177SOL    HW2 6551   3.019   2.492   3.302
 2178SOL     OW 6552   3.089   3.432   2.655
 2178SOL    HW1 6553   3.110   3.506   2.590
 2178SOL    HW2 6554   3.157   3.432   2.728
 2179SOL     OW 6555   2.321   3.014   2.603
 2179SOL    HW1 6556   2.250   2.987   2.668
 2179SOL    HW2 6557   2.295   2.986   2.510
 2180SOL     OW 6558   3.133   3.659   2.453
 2180SOL    HW1 6559   3.177   3.723   2.389
 2180SOL    HW2 6560   3.083   3.711   2.523
 2181SOL     OW 6561   2.894   2.411   1.878
 2181SOL    HW1 6562   2.853   2.493   1.839
 2181SOL    HW2 6563   2.958   2.437   1.951
 2182SOL     OW 6564   1.940   2.418   3.248
 2182SOL    HW1 6565   2.032   2.417   3.207
 2182SOL    HW2 6566   1.934   2.492   3.315
 2183SOL     OW 6567   2.423   2.084   3.009
 2183SOL    HW1 6568   2.461   2.000   3.046
 2183SOL    HW2 6569   2.335   2.103   3.053
 2184SOL     OW 6570   2.728   2.316   2.504
 2184SOL    HW1 6571   2.696   2.388   2.442
 2184SOL    HW2 6572   2.752   2.235   2.451
 2185SOL     OW 6573   2.879   1.901   2.615
 2185SOL    HW1 6574   2.807   1.906   2.546
 2185SOL    HW2 6575   2.855   1.832   2.684
 2186SOL     OW 6576   3.291   3.035   2.729
 2186SOL    HW1 6577   3.236   2.951   2.722
 2186SOL    HW2 6578   3.317   3.064   2.637
 2187SOL     OW 6579   3.328   2.452   2.854
 2187SOL    HW1 6580   3.298   2.357   2.861
 2187SOL    HW2 6581   3.401   2.468   2.920
 2188SOL     OW 6582   3.719   2.695   2.239
 2188SOL    HW1 6583   3.761   2.631   2.303
 2188SOL    HW2 6584   3.681   2.644   2.161
 2189SOL     OW 6585   2.350   3.247   2.036
 2189SOL    HW1 6586   2.263   3.232   2.083
 2189SOL    HW2 6587   2.333   3.273   1.941
 2190SOL     OW 6588   3.526   3.142   2.519
 2190SOL    HW1 6589   3.625   3.150   2.533
 2190SOL    HW2 6590   3.481   3.226   2.550
 2191SOL     OW 6591   3.252   2.437   1.940
 2191SOL    HW1 6592   3.198   2.416   2.021
 2191SOL    HW2 6593   3.343   2.396   1.949
 2192SOL     OW 6594   2.389   2.118   2.190
 2192SOL    HW1 6595   2.416   2.059   2.115
 2192SOL    HW2 6596   2.389   2.213   2.159
 2193SOL     OW 6597   3.616   3.085   3.450
 2193SOL    HW1 6598   3.707   3.046   3.437
 2193SOL    HW2 6599   3.624   3.181   3.474
 2194SOL     OW 6600   2.926   3.209   3.202
 2194SOL    HW1 6601   2.846   3.186   3.257
 2194SOL    HW2 6602   3.009   3.183   3.251
 2195SOL     OW 6603   3.454   3.491   3.487
 2195SOL    HW1 6604   3.481   3.525   3.397
 2195SOL    HW2 6605   3.533   3.453   3.533
 2196SOL     OW 6606   2.973   3.057   2.962
 2196SOL    HW1 6607   2.933   3.101   3.043
 2196SOL    HW2 6608   2.932   3.094   2.879
 2197SOL     OW 6609   3.500   2.961   2.941
 2197SOL    HW1 6610   3.505   3.042   3.000
 2197SOL    HW2 6611   3.414   2.963   2.890
 2198SOL     OW 6612   2.777   1.951   3.264
 2198SOL    HW1 6613   2.802   1.931   3.169
 2198SOL    HW2 6614   2.849   2.007   3.306
 2199SOL     OW 6615   2.842   2.978   3.581
 2199SOL    HW1 6616   2.743   2.984   3.591
 2199SOL    HW2 6617   2.865   2.898   3.525
 2200SOL     OW 6618   2.567   2.912   2.230
 2200SOL    HW1 6619   2.553   2.919   2.329
 2200SOL    HW2 6620   2.651   2.861   2.212
 2201SOL     OW 6621   2.272   2.675   3.113
 2201SOL    HW1 6622   2.358   2.687   3.163
 2201SOL    HW2 6623   2.230   2.588   3.140
 2202SOL     OW 6624   3.136   2.248   3.124
 2202SOL    HW1 6625   3.157   2.322   3.188
 2202SOL    HW2 6626   3.047   2.265   3.081
 2203SOL     OW 6627   1.926   3.426   3.193
 2203SOL    HW1 6628   1.880   3.508   3.159
 2203SOL    HW2 6629   2.024   3.445   3.202
 2204SOL     OW 6630   2.229   2.962   2.363
 2204SOL    HW1 6631   2.222   3.045   2.307
 2204SOL    HW2 6632   2.233   2.882   2.303
 2205SOL     OW 6633   3.114   3.210   2.250
 2205SOL    HW1 6634   3.164   3.287   2.290
 2205SOL    HW2 6635   3.019   3.212   2.282
 2206SOL     OW 6636   3.134   3.307   3.004
 2206SOL    HW1 6637   3.181   3.320   3.091
 2206SOL    HW2 6638   3.068   3.233   3.013
 2207SOL     OW 6639   3.444   2.501   2.334
 2207SOL    HW1 6640   3.413   2.562   2.407
 2207SOL    HW2 6641   3.494   2.553   2.265
 2208SOL     OW 6642   2.216   3.372   3.191
 2208SOL    HW1 6643   2.195   3.328   3.104
 2208SOL    HW2 6644   2.313   3.398   3.194
 2209SOL     OW 6645   2.264   2.613   3.460
 2209SOL    HW1 6646   2.332   2.668   3.413
 2209SOL    HW2 6647   2.304   2.525   3.487
 2210SOL     OW 6648   3.449   2.641   3.532
 2210SOL    HW1 6649   3.357   2.679   3.527
 2210SOL    HW2 6650   3.509   2.688   3.467
 2211SOL     OW 6651   2.875   1.967   3.632
 2211SOL    HW1 6652   2.881   2.052   3.580
 2211SOL    HW2 6653   2.907   1.891   3.575
 2212SOL     OW 6654   2.366   1.912   3.602
 2212SOL    HW1 6655   2.324   1.855   3.532
 2212SOL    HW2 6656   2.300   1.981   3.634
 2213SOL     OW 6657   2.435   2.732   2.891
 2213SOL    HW1 6658   2.479   2.821   2.882
 2213SOL    HW2 6659   2.372   2.732   2.968
 2214SOL     OW 6660   3.222   2.724   2.907
 2214SOL    HW1 6661   3.147   2.724   2.841
 2214SOL    HW2 6662   3.259   2.632   2.916
 2215SOL     OW 6663   3.071   2.387   2.137
 2215SOL    HW1 6664   3.084   2.303   2.191
 2215SOL    HW2 6665   3.042   2.461   2.197
 2216SOL     OW 6666   2.169   2.075   3.093
 2216SOL    HW1 6667   2.146   2.112   3.183
 2216SOL    HW2 6668   2.139   1.980   3.087
 2217SOL     OW 6669   1.899   3.172   3.144
 2217SOL    HW1 6670   1.952   3.123   3.212
 2217SOL    HW2 6671   1.921   3.270   3.149
 2218SOL     OW 6672   2.594   2.496   2.926
 2218SOL    HW1 6673   2.653   2.470   2.850
 2218SOL    HW2 6674   2.566   2.592   2.915
 2219SOL     OW 6675   3.590   2.797   3.716
 2219SOL    HW1 6676   3.544   2.790   3.627
 2219SOL    HW2 6677   3.528   2.841   3.782
 2220SOL     OW 6678   2.169   1.925   2.480
 2220SOL    HW1 6679   2.158   2.019   2.513
 2220SOL    HW2 6680   2.164   1.862   2.557
 2221SOL     OW 6681   3.484   2.229   2.236
 2221SOL    HW1 6682   3.486   2.153   2.300
 2221SOL    HW2 6683   3.436   2.306   2.276
 2222SOL     OW 6684   2.885   2.628   2.828
 2222SOL    HW1 6685   2.900   2.649   2.924
 2222SOL    HW2 6686   2.855   2.533   2.819
 2223SOL     OW 6687   2.842   3.435   3.562
 2223SOL    HW1 6688   2.822   3.479   3.474
 2223SOL    HW2 6689   2.881   3.344   3.546
 2224SOL     OW 6690   3.721   3.380   3.467
 2224SOL    HW1 6691   3.735   3.407   3.372
 2224SOL    HW2 6692   3.804   3.402   3.520
 2225SOL     OW 6693   2.212   2.760   3.666
 2225SOL    HW1 6694   2.288   2.804   3.714
 2225SOL    HW2 6695   2.247   2.713   3.584
 2226SOL     OW 6696   3.402   2.136   1.987
 2226SOL    HW1 6697   3.341   2.061   2.010
 2226SOL    HW2 6698   3.424   2.188   2.070
 2227SOL     OW 6699   3.165   2.700   1.904
 2227SOL    HW1 6700   3.199   2.607   1.919
 2227SOL    HW2 6701   3.183   2.727   1.809
 2228SOL     OW 6702   2.930   3.195   2.711
 2228SOL    HW1 6703   2.937   3.111   2.656
 2228SOL    HW2 6704   2.992   3.264   2.675
 2229SOL     OW 6705   2.181   2.672   2.811
 2229SOL    HW1 6706   2.274   2.708   2.816
 2229SOL    HW2 6707   2.175   2.587   2.863
 2230SOL     OW 6708   2.201   2.371   2.868
 2230SOL    HW1 6709   2.149   2.288   2.851
 2230SOL    HW2 6710   2.278   2.376   2.804
 2231SOL     OW 6711   3.000   2.242   3.540
 2231SOL    HW1 6712   2.955   2.305   3.604
 2231SOL    HW2 6713   3.093   2.273   3.523
 2232SOL     OW 6714   3.022   2.069   3.339
 2232SOL    HW1 6715   3.022   2.133   3.416
 2232SOL    HW2 6716   3.050   2.117   3.256
 2233SOL     OW 6717   1.870   3.188   2.062
 2233SOL    HW1 6718   1.777   3.209   2.031
 2233SOL    HW2 6719   1.880   3.089   2.075
 2234SOL     OW 6720   1.950   3.663   2.789
 2234SOL    HW1 6721   1.908   3.577   2.762
 2234SOL    HW2 6722   2.044   3.666   2.755
 2235SOL     OW 6723   2.366   3.430   2.772
 2235SOL    HW1 6724   2.432   3.504   2.781
 2235SOL    HW2 6725   2.410   3.351   2.730
 2236SOL     OW 6726   2.864   2.658   3.100
 2236SOL    HW1 6727   2.905   2.626   3.186
 2236SOL    HW2 6728   2.768   2.631   3.097
 2237SOL     OW 6729   1.902   2.406   2.976
 2237SOL    HW1 6730   1.987   2.373   2.935
 2237SOL    HW2 6731   1.915   2.421   3.074
 2238SOL     OW 6732   2.051   2.382   3.584
 2238SOL    HW1 6733   2.110   2.342   3.514
 2238SOL    HW2 6734   1.993   2.453   3.543
 2239SOL     OW 6735   3.231   2.812   3.522
 2239SOL    HW1 6736   3.270   2.901   3.542
 2239SOL    HW2 6737   3.241   2.792   3.425
 2240SOL     OW 6738   3.519   2.466   3.068
 2240SOL    HW1 6739   3.481   2.397   3.130
 2240SOL    HW2 6740   3.601   2.430   3.024
 2241SOL     OW 6741   2.114   3.426   3.606
 2241SOL    HW1 6742   2.084   3.483   3.682
 2241SOL    HW2 6743   2.107   3.329   3.632
 2242SOL     OW 6744   2.533   2.326   3.131
 2242SOL    HW1 6745   2.499   2.237   3.101
 2242SOL    HW2 6746   2.559   2.380   3.051
 2243SOL     OW 6747   2.792   3.540   3.327
 2243SOL    HW1 6748   2.768   3.522   3.232
 2243SOL    HW2 6749   2.822   3.634   3.337
 2244SOL     OW 6750   2.335   2.362   2.053
 2244SOL    HW1 6751   2.396   2.442   2.057
 2244SOL    HW2 6752   2.240   2.393   2.060
 2245SOL     OW 6753   2.021   2.999   3.328
 2245SOL    HW1 6754   2.043   2.938   3.404
 2245SOL    HW2 6755   2.031   2.950   3.242
 2246SOL     OW 6756   3.209   2.921   3.096
 2246SOL    HW1 6757   3.233   2.858   3.022
 2246SOL    HW2 6758   3.119   2.961   3.078
 2247SOL     OW 6759   3.164   2.717   2.171
 2247SOL    HW1 6760   3.078   2.686   2.213
 2247SOL    HW2 6761   3.160   2.703   2.072
 2248SOL     OW 6762   3.621   3.609   3.016
 2248SOL    HW1 6763   3.682   3.639   2.943
 2248SOL    HW2 6764   3.583   3.520   2.994
 2249SOL     OW 6765   3.114   3.593   2.990
 2249SOL    HW1 6766   3.198   3.598   2.936
 2249SOL    HW2 6767   3.091   3.497   3.008
 2250SOL     OW 6768   1.945   3.120   2.884
 2250SOL    HW1 6769   1.940   3.119   2.984
 2250SOL    HW2 6770   1.862   3.079   2.846
 2251SOL     OW 6771   2.550   3.524   3.578
 2251SOL    HW1 6772   2.494   3.605   3.587
 2251SOL    HW2 6773   2.602   3.528   3.492
 2252SOL     OW 6774   3.588   1.997   2.385
 2252SOL    HW1 6775   3.661   1.980   2.318
 2252SOL    HW2 6776   3.557   1.910   2.423
 2253SOL     OW 6777   3.250   3.435   2.339
 2253SOL    HW1 6778   3.317   3.447   2.265
 2253SOL    HW2 6779   3.210   3.524   2.362
 2254SOL     OW 6780   1.992   3.656   3.713
 2254SOL    HW1 6781   1.951   3.582   3.766
 2254SOL    HW2 6782   2.056   3.707   3.771
 2255SOL     OW 6783   3.142   2.789   2.534
 2255SOL    HW1 6784   3.202   2.708   2.536
 2255SOL    HW2 6785   3.182   2.858   2.474
 2256SOL     OW 6786   2.692   3.135   3.284
 2256SOL    HW1 6787   2.687   3.168   3.379
 2256SOL    HW2 6788   2.606   3.154   3.238
 2257SOL     OW 6789   2.534   3.478   2.016
 2257SOL    HW1 6790   2.543   3.488   1.917
 2257SOL    HW2 6791   2.494   3.389   2.037
 2258SOL     OW 6792   3.512   3.582   3.256
 2258SOL    HW1 6793   3.565   3.592   3.172
 2258SOL    HW2 6794   3.485   3.672   3.290
 2259SOL     OW 6795   3.703   2.037   2.825
 2259SOL    HW1 6796   3.742   1.952   2.789
 2259SOL    HW2 6797   3.605   2.039   2.806
 2260SOL     OW 6798   3.056   3.474   1.893
 2260SOL    HW1 6799   3.062   3.381   1.930
 2260SOL    HW2 6800   2.997   3.474   1.813
 2261SOL     OW 6801   2.684   2.864   3.234
 2261SOL    HW1 6802   2.724   2.863   3.142
 2261SOL    HW2 6803   2.694   2.956   3.274
 2262SOL     OW 6804   2.778   2.772   2.153
 2262SOL    HW1 6805   2.841   2.810   2.085
 2262SOL    HW2 6806   2.818   2.689   2.192
 2263SOL     OW 6807   3.366   3.469   1.906
 2263SOL    HW1 6808   3.274   3.506   1.913
 2263SOL    HW2 6809   3.404   3.489   1.816
 2264SOL     OW 6810   2.234   3.150   3.352
 2264SOL    HW1 6811   2.221   3.243   3.318
 2264SOL    HW2 6812   2.150   3.098   3.339
 2265SOL     OW 6813   3.476   3.154   3.151
 2265SOL    HW1 6814   3.536   3.157   3.231
 2265SOL    HW2 6815   3.401   3.218   3.164
 2266SOL     OW 6816   2.901   2.960   2.558
 2266SOL    HW1 6817   2.831   2.913   2.612
 2266SOL    HW2 6818   2.960   2.892   2.515
 2267SOL     OW 6819   2.876   2.098   2.833
 2267SOL    HW1 6820   2.868   2.062   2.740
 2267SOL    HW2 6821   2.874   2.022   2.898
 2268SOL     OW 6822   2.452   3.349   2.353
 2268SOL    HW1 6823   2.494   3.291   2.283
 2268SOL    HW2 6824   2.408   3.428   2.309
 2269SOL     OW 6825   3.571   2.247   3.243
 2269SOL    HW1 6826   3.644   2.316   3.247
 2269SOL    HW2 6827   3.599   2.172   3.184
 2270SOL     OW 6828   2.117   3.210   2.152
 2270SOL    HW1 6829   2.021   3.211   2.125
 2270SOL    HW2 6830   2.129   3.263   2.236
 2271SOL     OW 6831   1.967   2.875   3.588
 2271SOL    HW1 6832   1.890   2.842   3.642
 2271SOL    HW2 6833   2.052   2.845   3.630
 2272SOL     OW 6834   2.534   2.065   3.351
 2272SOL    HW1 6835   2.624   2.049   3.311
 2272SOL    HW2 6836   2.542   2.070   3.450
 2273SOL     OW 6837   1.937   2.207   1.895
 2273SOL    HW1 6838   1.845   2.179   1.866
 2273SOL    HW2 6839   1.968   2.284   1.839
 2274SOL     OW 6840   3.302   2.718   3.260
 2274SOL    HW1 6841   3.245   2.770   3.197
 2274SOL    HW2 6842   3.398   2.730   3.236
 2275SOL     OW 6843   1.934   2.028   2.180
 2275SOL    HW1 6844   1.917   2.111   2.126
 2275SOL    HW2 6845   2.024   1.991   2.158
 2276SOL     OW 6846   3.045   3.197   1.981
 2276SOL    HW1 6847   2.946   3.186   1.983
 2276SOL    HW2 6848   3.079   3.212   2.074
 2277SOL     OW 6849   2.475   2.704   3.293
 2277SOL    HW1 6850   2.531   2.785   3.276
 2277SOL    HW2 6851   2.534   2.624   3.296
 2278SOL     OW 6852   3.355   3.629   2.821
 2278SOL    HW1 6853   3.388   3.693   2.752
 2278SOL    HW2 6854   3.421   3.623   2.896
 2279SOL     OW 6855   2.578   2.427   3.570
 2279SOL    HW1 6856   2.597   2.492   3.644
 2279SOL    HW2 6857   2.638   2.347   3.579
 2280SOL     OW 6858   3.312   3.082   3.495
 2280SOL    HW1 6859   3.303   3.072   3.594
 2280SOL    HW2 6860   3.408   3.075   3.469
 2281SOL     OW 6861   2.252   3.603   3.422
 2281SOL    HW1 6862   2.161   3.644   3.420
 2281SOL    HW2 6863   2.245   3.509   3.454
 2282SOL     OW 6864   3.536   2.745   3.116
 2282SOL    HW1 6865   3.509   2.656   3.079
 2282SOL    HW2 6866   3.537   2.813   3.043
 2283SOL     OW 6867   3.087   2.187   2.311
 2283SOL    HW1 6868   3.152   2.113   2.300
 2283SOL    HW2 6869   3.107   2.237   2.395
 2284SOL     OW 6870   3.639   2.204   3.504
 2284SOL    HW1 6871   3.622   2.235   3.410
 2284SOL    HW2 6872   3.555   2.167   3.542
 2285SOL     OW 6873   3.592   2.796   3.379
 2285SOL    HW1 6874   3.630   2.887   3.394
 2285SOL    HW2 6875   3.584   2.779   3.280
 2286SOL     OW 6876   2.721   3.236   1.878
 2286SOL    HW1 6877   2.675   3.251   1.966
 2286SOL    HW2 6878   2.765   3.321   1.848
 2287SOL     OW 6879   2.523   3.652   2.815
 2287SOL    HW1 6880   2.477   3.740   2.802
 2287SOL    HW2 6881   2.622   3.664   2.808
 2288SOL     OW 6882   2.721   2.818   2.723
 2288SOL    HW1 6883   2.775   2.749   2.771
 2288SOL    HW2 6884   2.689   2.887   2.789
 2289SOL     OW 6885   2.945   2.846   1.949
 2289SOL    HW1 6886   2.922   2.899   1.867
 2289SOL    HW2 6887   3.026   2.790   1.930
 2290SOL     OW 6888   3.723   3.431   2.713
 2290SOL    HW1 6889   3.652   3.419   2.643
 2290SOL    HW2 6890   3.724   3.352   2.773
 2291SOL     OW 6891   2.083   3.176   3.706
 2291SOL    HW1 6892   2.018   3.103   3.685
 2291SOL    HW2 6893   2.087   3.190   3.804
 2292SOL     OW 6894   1.941   3.102   2.515
 2292SOL    HW1 6895   1.940   3.055   2.603
 2292SOL    HW2 6896   2.023   3.074   2.464
 2293SOL     OW 6897   2.534   3.253   3.486
 2293SOL    HW1 6898   2.456   3.203   3.524
 2293SOL    HW2 6899   2.531   3.348   3.517
 2294SOL     OW 6900   3.686   2.054   3.089
 2294SOL    HW1 6901   3.682   1.964   3.133
 2294SOL    HW2 6902   3.689   2.043   2.990
 2295SOL     OW 6903   3.567   3.349   2.966
 2295SOL    HW1 6904   3.474   3.324   2.939
 2295SOL    HW2 6905   3.593   3.299   3.048
 2296SOL     OW 6906   2.179   2.409   3.142
 2296SOL    HW1 6907   2.217   2.350   3.214
 2296SOL    HW2 6908   2.219   2.383   3.054
 2297SOL     OW 6909   2.674   3.448   2.549
 2297SOL    HW1 6910   2.706   3.458   2.455
 2297SOL    HW2 6911   2.595   3.386   2.551
 2298SOL     OW 6912   3.286   2.076   2.974
 2298SOL    HW1 6913   3.338   2.011   3.029
 2298SOL    HW2 6914   3.237   2.139   3.035
 2299SOL     OW 6915   2.863   1.896   3.016
 2299SOL    HW1 6916   2.800   1.824   2.985
 2299SOL    HW2 6917   2.956   1.860   3.016
 2300SOL     OW 6918   2.632   3.192   2.163
 2300SOL    HW1 6919   2.586   3.105   2.180
 2300SOL    HW2 6920   2.723   3.189   2.204
 2301SOL     OW 6921   2.480   3.429   3.146
 2301SOL    HW1 6922   2.475   3.511   3.203
 2301SOL    HW2 6923   2.569   3.426   3.101
 2302SOL     OW 6924   3.214   1.914   2.030
 2302SOL    HW1 6925   3.249   1.873   1.946
 2302SOL    HW2 6926   3.124   1.876   2.050
 2303SOL     OW 6927   3.162   2.315   2.553
 2303SOL    HW1 6928   3.103   2.395   2.557
 2303SOL    HW2 6929   3.177   2.280   2.646
 2304SOL     OW 6930   3.455   2.083   2.744
 2304SOL    HW1 6931   3.371   2.082   2.798
 2304SOL    HW2 6932   3.457   2.166   2.688
 2305SOL     OW 6933   1.901   2.939   2.162
 2305SOL    HW1 6934   2.000   2.928   2.153
 2305SOL    HW2 6935   1.861   2.853   2.194
 2306SOL     OW 6936   2.737   3.508   2.199
 2306SOL    HW1 6937   2.660   3.473   2.145
 2306SOL    HW2 6938   2.705   3.579   2.261
 2307SOL     OW 6939   2.092   2.490   3.837
 2307SOL    HW1 6940   1.999   2.488   3.874
 2307SOL    HW2 6941   2.093   2.451   3.745
 2308SOL     OW 6942   2.087   2.137   4.720
 2308SOL    HW1 6943   2.122   2.120   4.812
 2308SOL    HW2 6944   1.999   2.092   4.708
 2309SOL     OW 6945   1.881   2.230   4.371
 2309SOL    HW1 6946   1.799   2.273   4.410
 2309SOL    HW2 6947   1.853   2.157   4.308
 2310SOL     OW 6948   3.417   3.373   4.427
 2310SOL    HW1 6949   3.360   3.357   4.508
 2310SOL    HW2 6950   3.358   3.383   4.347
 2311SOL     OW 6951   2.997   2.565   4.441
 2311SOL    HW1 6952   3.054   2.643   4.416
 2311SOL    HW2 6953   2.937   2.591   4.517
 2312SOL     OW 6954   3.617   2.469   3.955
 2312SOL    HW1 6955   3.605   2.456   3.856
 2312SOL    HW2 6956   3.587   2.388   4.004
 2313SOL     OW 6957   2.630   3.006   4.747
 2313SOL    HW1 6958   2.552   3.023   4.807
 2313SOL    HW2 6959   2.664   3.093   4.711
 2314SOL     OW 6960   2.547   2.874   4.389
 2314SOL    HW1 6961   2.616   2.858   4.459
 2314SOL    HW2 6962   2.474   2.931   4.427
 2315SOL     OW 6963   3.465   2.309   4.461
 2315SOL    HW1 6964   3.391   2.355   4.411
 2315SOL    HW2 6965   3.516   2.377   4.514
 2316SOL     OW 6966   2.093   3.575   4.207
 2316SOL    HW1 6967   2.127   3.652   4.261
 2316SOL    HW2 6968   2.137   3.575   4.117
 2317SOL     OW 6969   2.092   3.296   4.262
 2317SOL    HW1 6970   2.066   3.392   4.262
 2317SOL    HW2 6971   2.021   3.242   4.307
 2318SOL     OW 6972   2.102   2.953   4.610
 2318SOL    HW1 6973   2.116   2.869   4.662
 2318SOL    HW2 6974   2.047   3.017   4.665
 2319SOL     OW 6975   2.468   2.826   3.847
 2319SOL    HW1 6976   2.475   2.910   3.793
 2319SOL    HW2 6977   2.514   2.839   3.935
 2320SOL     OW 6978   1.984   2.505   4.287
 2320SOL    HW1 6979   1.939   2.417   4.304
 2320SOL    HW2 6980   1.983   2.559   4.371
 2321SOL     OW 6981   3.704   3.629   4.083
 2321SOL    HW1 6982   3.758   3.600   4.163
 2321SOL    HW2 6983   3.734   3.719   4.054
 2322SOL     OW 6984   1.889   3.458   3.841
 2322SOL    HW1 6985   1.870   3.362   3.862
 2322SOL    HW2 6986   1.856   3.516   3.916
 2323SOL     OW 6987   3.551   2.784   4.336
 2323SOL    HW1 6988   3.646   2.755   4.344
 2323SOL    HW2 6989   3.543   2.849   4.261
 2324SOL     OW 6990   3.503   2.970   4.156
 2324SOL    HW1 6991   3.589   2.972   4.104
 2324SOL    HW2 6992   3.517   3.017   4.244
 2325SOL     OW 6993   2.475   3.227   4.450
 2325SOL    HW1 6994   2.426   3.140   4.459
 2325SOL    HW2 6995   2.452   3.270   4.363
 2326SOL     OW 6996   2.671   1.866   4.226
 2326SOL    HW1 6997   2.711   1.957   4.217
 2326SOL    HW2 6998   2.571   1.874   4.232
 2327SOL     OW 6999   3.387   2.861   3.914
 2327SOL    HW1 7000   3.324   2.785   3.927
 2327SOL    HW2 7001   3.435   2.879   4.000
 2328SOL     OW 7002   3.328   3.279   4.677
 2328SOL    HW1 7003   3.269   3.285   4.757
 2328SOL    HW2 7004   3.313   3.191   4.631
 2329SOL     OW 7005   3.529   3.576   4.296
 2329SOL    HW1 7006   3.488   3.553   4.208
 2329SOL    HW2 7007   3.511   3.502   4.361
 2330SOL     OW 7008   2.460   2.591   3.994
 2330SOL    HW1 7009   2.484   2.660   3.926
 2330SOL    HW2 7010   2.382   2.624   4.048
 2331SOL     OW 7011   3.143   2.207   4.668
 2331SOL    HW1 7012   3.057   2.157   4.655
 2331SOL    HW2 7013   3.205   2.153   4.724
 2332SOL     OW 7014   3.438   3.524   4.031
 2332SOL    HW1 7015   3.527   3.570   4.034
 2332SOL    HW2 7016   3.417   3.500   3.936
 2333SOL     OW 7017   2.903   2.563   4.153
 2333SOL    HW1 7018   2.929   2.559   4.249
 2333SOL    HW2 7019   2.818   2.512   4.139
 2334SOL     OW 7020   1.938   2.673   4.513
 2334SOL    HW1 7021   2.037   2.661   4.522
 2334SOL    HW2 7022   1.914   2.768   4.534
 2335SOL     OW 7023   2.727   2.210   3.919
 2335SOL    HW1 7024   2.786   2.273   3.870
 2335SOL    HW2 7025   2.746   2.116   3.890
 2336SOL     OW 7026   3.224   3.006   4.269
 2336SOL    HW1 7027   3.307   2.977   4.221
 2336SOL    HW2 7028   3.175   3.073   4.213
 2337SOL     OW 7029   2.870   3.318   4.201
 2337SOL    HW1 7030   2.824   3.390   4.149
 2337SOL    HW2 7031   2.866   3.338   4.299
 2338SOL     OW 7032   2.213   3.663   4.577
 2338SOL    HW1 7033   2.263   3.577   4.583
 2338SOL    HW2 7034   2.278   3.740   4.574
 2339SOL     OW 7035   3.657   2.928   4.597
 2339SOL    HW1 7036   3.595   2.913   4.521
 2339SOL    HW2 7037   3.605   2.939   4.682
 2340SOL     OW 7038   2.183   2.805   3.966
 2340SOL    HW1 7039   2.265   2.844   3.924
 2340SOL    HW2 7040   2.156   2.723   3.917
 2341SOL     OW 7041   3.320   2.597   4.452
 2341SOL    HW1 7042   3.315   2.532   4.527
 2341SOL    HW2 7043   3.400   2.656   4.465
 2342SOL     OW 7044   2.973   3.638   3.961
 2342SOL    HW1 7045   2.913   3.576   4.011
 2342SOL    HW2 7046   3.004   3.594   3.876
 2343SOL     OW 7047   3.494   3.239   3.805
 2343SOL    HW1 7048   3.462   3.333   3.795
 2343SOL    HW2 7049   3.418   3.176   3.793
 2344SOL     OW 7050   2.326   3.605   4.047
 2344SOL    HW1 7051   2.359   3.644   4.133
 2344SOL    HW2 7052   2.402   3.598   3.982
 2345SOL     OW 7053   3.262   1.969   4.150
 2345SOL    HW1 7054   3.238   1.932   4.060
 2345SOL    HW2 7055   3.361   1.985   4.154
 2346SOL     OW 7056   2.244   2.562   4.204
 2346SOL    HW1 7057   2.289   2.472   4.201
 2346SOL    HW2 7058   2.150   2.551   4.237
 2347SOL     OW 7059   2.476   1.984   3.841
 2347SOL    HW1 7060   2.574   1.962   3.848
 2347SOL    HW2 7061   2.445   1.967   3.748
 2348SOL     OW 7062   2.784   2.365   4.623
 2348SOL    HW1 7063   2.759   2.356   4.527
 2348SOL    HW2 7064   2.832   2.283   4.654
 2349SOL     OW 7065   2.401   1.926   4.236
 2349SOL    HW1 7066   2.320   1.927   4.294
 2349SOL    HW2 7067   2.404   2.009   4.181
 2350SOL     OW 7068   3.296   3.050   3.765
 2350SOL    HW1 7069   3.328   2.974   3.822
 2350SOL    HW2 7070   3.204   3.077   3.795
 2351SOL     OW 7071   2.159   1.897   3.895
 2351SOL    HW1 7072   2.208   1.981   3.874
 2351SOL    HW2 7073   2.221   1.832   3.940
 2352SOL     OW 7074   2.797   2.098   4.204
 2352SOL    HW1 7075   2.749   2.139   4.126
 2352SOL    HW2 7076   2.896   2.096   4.185
 2353SOL     OW 7077   3.089   3.432   4.517
 2353SOL    HW1 7078   3.110   3.506   4.452
 2353SOL    HW2 7079   3.157   3.432   4.590
 2354SOL     OW 7080   2.321   3.014   4.465
 2354SOL    HW1 7081   2.250   2.987   4.530
 2354SOL    HW2 7082   2.295   2.986   4.372
 2355SOL     OW 7083   3.133   3.659   4.315
 2355SOL    HW1 7084   3.177   3.723   4.251
 2355SOL    HW2 7085   3.083   3.711   4.385
 2356SOL     OW 7086   2.894   2.411   3.740
 2356SOL    HW1 7087   2.853   2.493   3.701
 2356SOL    HW2 7088   2.958   2.437   3.813
 2357SOL     OW 7089   2.728   2.316   4.366
 2357SOL    HW1 7090   2.696   2.388   4.304
 2357SOL    HW2 7091   2.752   2.235   4.313
 2358SOL     OW 7092   2.879   1.901   4.477
 2358SOL    HW1 7093   2.807   1.906   4.408
 2358SOL    HW2 7094   2.855   1.832   4.546
 2359SOL     OW 7095   3.291   3.035   4.591
 2359SOL    HW1 7096   3.236   2.951   4.584
 2359SOL    HW2 7097   3.317   3.064   4.499
 2360SOL     OW 7098   3.719   2.695   4.101
 2360SOL    HW1 7099   3.761   2.631   4.165
 2360SOL    HW2 7100   3.681   2.644   4.023
 2361SOL     OW 7101   2.350   3.247   3.898
 2361SOL    HW1 7102   2.263   3.232   3.945
 2361SOL    HW2 7103   2.333   3.273   3.803
 2362SOL     OW 7104   3.526   3.142   4.381
 2362SOL    HW1 7105   3.625   3.150   4.395
 2362SOL    HW2 7106   3.481   3.226   4.412
 2363SOL     OW 7107   3.252   2.437   3.802
 2363SOL    HW1 7108   3.198   2.416   3.883
 2363SOL    HW2 7109   3.343   2.396   3.811
 2364SOL     OW 7110   2.389   2.118   4.052
 2364SOL    HW1 7111   2.416   2.059   3.977
 2364SOL    HW2 7112   2.389   2.213   4.021
 2365SOL     OW 7113   2.567   2.912   4.092
 2365SOL    HW1 7114   2.553   2.919   4.191
 2365SOL    HW2 7115   2.651   2.861   4.074
 2366SOL     OW 7116   2.229   2.962   4.225
 2366SOL    HW1 7117   2.222   3.045   4.169
 2366SOL    HW2 7118   2.233   2.882   4.165
 2367SOL     OW 7119   2.428   2.399   4.589
 2367SOL    HW1 7120   2.440   2.465   4.515
 2367SOL    HW2 7121   2.474   2.433   4.672
 2368SOL     OW 7122   3.114   3.210   4.112
 2368SOL    HW1 7123   3.164   3.287   4.152
 2368SOL    HW2 7124   3.019   3.212   4.144
 2369SOL     OW 7125   3.444   2.501   4.196
 2369SOL    HW1 7126   3.413   2.562   4.269
 2369SOL    HW2 7127   3.494   2.553   4.127
 2370SOL     OW 7128   3.071   2.387   3.999
 2370SOL    HW1 7129   3.084   2.303   4.053
 2370SOL    HW2 7130   3.042   2.461   4.059
 2371SOL     OW 7131   2.594   2.496   4.788
 2371SOL    HW1 7132   2.653   2.470   4.712
 2371SOL    HW2 7133   2.566   2.592   4.777
 2372SOL     OW 7134   2.169   1.925   4.342
 2372SOL    HW1 7135   2.158   2.019   4.375
 2372SOL    HW2 7136   2.164   1.862   4.419
 2373SOL     OW 7137   3.484   2.229   4.098
 2373SOL    HW1 7138   3.486   2.153   4.162
 2373SOL    HW2 7139   3.436   2.306   4.138
 2374SOL     OW 7140   3.402   2.136   3.849
 2374SOL    HW1 7141   3.341   2.061   3.872
 2374SOL    HW2 7142   3.424   2.188   3.932
 2375SOL     OW 7143   3.165   2.700   3.766
 2375SOL    HW1 7144   3.199   2.607   3.781
 2375SOL    HW2 7145   3.183   2.727   3.671
 2376SOL     OW 7146   2.930   3.195   4.573
 2376SOL    HW1 7147   2.937   3.111   4.518
 2376SOL    HW2 7148   2.992   3.264   4.537
 2377SOL     OW 7149   2.181   2.672   4.673
 2377SOL    HW1 7150   2.274   2.708   4.678
 2377SOL    HW2 7151   2.175   2.587   4.725
 2378SOL     OW 7152   1.870   3.188   3.924
 2378SOL    HW1 7153   1.777   3.209   3.893
 2378SOL    HW2 7154   1.880   3.089   3.937
 2379SOL     OW 7155   1.950   3.663   4.651
 2379SOL    HW1 7156   1.908   3.577   4.624
 2379SOL    HW2 7157   2.044   3.666   4.617
 2380SOL     OW 7158   2.366   3.430   4.634
 2380SOL    HW1 7159   2.432   3.504   4.643
 2380SOL    HW2 7160   2.410   3.351   4.592
 2381SOL     OW 7161   2.677   2.434   4.049
 2381SOL    HW1 7162   2.684   2.345   4.003
 2381SOL    HW2 7163   2.583   2.468   4.041
 2382SOL     OW 7164   2.335   2.362   3.915
 2382SOL    HW1 7165   2.396   2.442   3.919
 2382SOL    HW2 7166   2.240   2.393   3.922
 2383SOL     OW 7167   3.164   2.717   4.033
 2383SOL    HW1 7168   3.078   2.686   4.075
 2383SOL    HW2 7169   3.160   2.703   3.934
 2384SOL     OW 7170   3.621   3.609   4.878
 2384SOL    HW1 7171   3.682   3.639   4.805
 2384SOL    HW2 7172   3.583   3.520   4.856
 2385SOL     OW 7173   3.588   1.997   4.247
 2385SOL    HW1 7174   3.661   1.980   4.180
 2385SOL    HW2 7175   3.557   1.910   4.285
 2386SOL     OW 7176   3.250   3.435   4.201
 2386SOL    HW1 7177   3.317   3.447   4.127
 2386SOL    HW2 7178   3.210   3.524   4.224
 2387SOL     OW 7179   3.142   2.789   4.396
 2387SOL    HW1 7180   3.202   2.708   4.398
 2387SOL    HW2 7181   3.182   2.858   4.336
 2388SOL     OW 7182   2.534   3.478   3.878
 2388SOL    HW1 7183   2.543   3.488   3.779
 2388SOL    HW2 7184   2.494   3.389   3.899
 2389SOL     OW 7185   3.703   2.037   4.687
 2389SOL    HW1 7186   3.742   1.952   4.651
 2389SOL    HW2 7187   3.605   2.039   4.668
 2390SOL     OW 7188   2.125   2.188   4.444
 2390SOL    HW1 7189   2.046   2.239   4.410
 2390SOL    HW2 7190   2.116   2.173   4.542
 2391SOL     OW 7191   3.056   3.474   3.755
 2391SOL    HW1 7192   3.062   3.381   3.792
 2391SOL    HW2 7193   2.997   3.474   3.675
 2392SOL     OW 7194   2.778   2.772   4.015
 2392SOL    HW1 7195   2.841   2.810   3.947
 2392SOL    HW2 7196   2.818   2.689   4.054
 2393SOL     OW 7197   3.366   3.469   3.768
 2393SOL    HW1 7198   3.274   3.506   3.775
 2393SOL    HW2 7199   3.404   3.489   3.678
 2394SOL     OW 7200   2.901   2.960   4.420
 2394SOL    HW1 7201   2.831   2.913   4.474
 2394SOL    HW2 7202   2.960   2.892   4.377
 2395SOL     OW 7203   2.452   3.349   4.215
 2395SOL    HW1 7204   2.494   3.291   4.145
 2395SOL    HW2 7205   2.408   3.428   4.171
 2396SOL     OW 7206   2.117   3.210   4.014
 2396SOL    HW1 7207   2.021   3.211   3.987
 2396SOL    HW2 7208   2.129   3.263   4.098
 2397SOL     OW 7209   1.937   2.207   3.757
 2397SOL    HW1 7210   1.845   2.179   3.728
 2397SOL    HW2 7211   1.968   2.284   3.701
 2398SOL     OW 7212   1.934   2.028   4.042
 2398SOL    HW1 7213   1.917   2.111   3.988
 2398SOL    HW2 7214   2.024   1.991   4.020
 2399SOL     OW 7215   3.045   3.197   3.843
 2399SOL    HW1 7216   2.946   3.186   3.845
 2399SOL    HW2 7217   3.079   3.212   3.936
 2400SOL     OW 7218   3.536   2.745   4.978
 2400SOL    HW1 7219   3.509   2.656   4.941
 2400SOL    HW2 7220   3.537   2.813   4.905
 2401SOL     OW 7221   3.087   2.187   4.173
 2401SOL    HW1 7222   3.152   2.113   4.162
 2401SOL    HW2 7223   3.107   2.237   4.257
 2402SOL     OW 7224   2.456   2.607   4.376
 2402SOL    HW1 7225   2.506   2.692   4.357
 2402SOL    HW2 7226   2.368   2.609   4.328
 2403SOL     OW 7227   2.721   3.236   3.740
 2403SOL    HW1 7228   2.675   3.251   3.828
 2403SOL    HW2 7229   2.765   3.321   3.710
 2404SOL     OW 7230   2.523   3.652   4.677
 2404SOL    HW1 7231   2.477   3.740   4.664
 2404SOL    HW2 7232   2.622   3.664   4.670
 2405SOL     OW 7233   2.721   2.818   4.585
 2405SOL    HW1 7234   2.775   2.749   4.633
 2405SOL    HW2 7235   2.689   2.887   4.651
 2406SOL     OW 7236   2.945   2.846   3.811
 2406SOL    HW1 7237   2.922   2.899   3.729
 2406SOL    HW2 7238   3.026   2.790   3.792
 2407SOL     OW 7239   3.723   3.431   4.575
 2407SOL    HW1 7240   3.652   3.419   4.505
 2407SOL    HW2 7241   3.724   3.352   4.635
 2408SOL     OW 7242   1.941   3.102   4.377
 2408SOL    HW1 7243   1.940   3.055   4.465
 2408SOL    HW2 7244   2.023   3.074   4.326
 2409SOL     OW 7245   3.686   2.054   4.951
 2409SOL    HW1 7246   3.682   1.964   4.995
 2409SOL    HW2 7247   3.689   2.043   4.852
 2410SOL     OW 7248   2.290   2.286   4.244
 2410SOL    HW1 7249   2.320   2.214   4.182
 2410SOL    HW2 7250   2.251   2.246   4.327
 2411SOL     OW 7251   2.674   3.448   4.411
 2411SOL    HW1 7252   2.706   3.458   4.317
 2411SOL    HW2 7253   2.595   3.386   4.413
 2412SOL     OW 7254   2.632   3.192   4.025
 2412SOL    HW1 7255   2.586   3.105   4.042
 2412SOL    HW2 7256   2.723   3.189   4.066
 2413SOL     OW 7257   3.214   1.914   3.892
 2413SOL    HW1 7258   3.249   1.873   3.808
 2413SOL    HW2 7259   3.124   1.876   3.912
 2414SOL     OW 7260   3.162   2.315   4.415
 2414SOL    HW1 7261   3.103   2.395   4.419
 2414SOL    HW2 7262   3.177   2.280   4.508
 2415SOL     OW 7263   3.455   2.083   4.606
 2415SOL    HW1 7264   3.371   2.082   4.660
 2415SOL    HW2 7265   3.457   2.166   4.550
 2416SOL     OW 7266   1.901   2.939   4.024
 2416SOL    HW1 7267   2.000   2.928   4.015
 2416SOL    HW2 7268   1.861   2.853   4.056
 2417SOL     OW 7269   2.737   3.508   4.061
 2417SOL    HW1 7270   2.660   3.473   4.007
 2417SOL    HW2 7271   2.705   3.579   4.123
 2418SOL     OW 7272   2.092   4.352   0.113
 2418SOL    HW1 7273   1.999   4.350   0.150
 2418SOL    HW2 7274   2.093   4.313   0.021
 2419SOL     OW 7275   2.087   3.999   0.996
 2419SOL    HW1 7276   2.122   3.982   1.088
 2419SOL    HW2 7277   1.999   3.954   0.984
 2420SOL     OW 7278   1.881   4.092   0.647
 2420SOL    HW1 7279   1.799   4.135   0.686
 2420SOL    HW2 7280   1.853   4.019   0.584
 2421SOL     OW 7281   2.997   4.427   0.717
 2421SOL    HW1 7282   3.054   4.505   0.692
 2421SOL    HW2 7283   2.937   4.453   0.793
 2422SOL     OW 7284   3.617   4.331   0.231
 2422SOL    HW1 7285   3.605   4.318   0.132
 2422SOL    HW2 7286   3.587   4.250   0.280
 2423SOL     OW 7287   2.712   4.522   1.823
 2423SOL    HW1 7288   2.708   4.598   1.888
 2423SOL    HW2 7289   2.734   4.558   1.732
 2424SOL     OW 7290   2.547   4.736   0.665
 2424SOL    HW1 7291   2.616   4.720   0.735
 2424SOL    HW2 7292   2.474   4.793   0.703
 2425SOL     OW 7293   2.300   4.116   1.499
 2425SOL    HW1 7294   2.382   4.060   1.508
 2425SOL    HW2 7295   2.219   4.058   1.503
 2426SOL     OW 7296   3.465   4.171   0.737
 2426SOL    HW1 7297   3.391   4.217   0.687
 2426SOL    HW2 7298   3.516   4.239   0.790
 2427SOL     OW 7299   3.456   3.838   1.480
 2427SOL    HW1 7300   3.438   3.905   1.408
 2427SOL    HW2 7301   3.453   3.884   1.569
 2428SOL     OW 7302   1.984   4.367   0.563
 2428SOL    HW1 7303   1.939   4.279   0.580
 2428SOL    HW2 7304   1.983   4.421   0.647
 2429SOL     OW 7305   1.975   4.461   1.597
 2429SOL    HW1 7306   2.063   4.448   1.642
 2429SOL    HW2 7307   1.962   4.558   1.575
 2430SOL     OW 7308   2.671   3.728   0.502
 2430SOL    HW1 7309   2.711   3.819   0.493
 2430SOL    HW2 7310   2.571   3.736   0.508
 2431SOL     OW 7311   2.059   4.700   1.264
 2431SOL    HW1 7312   2.148   4.655   1.250
 2431SOL    HW2 7313   1.986   4.635   1.245
 2432SOL     OW 7314   3.387   4.723   0.190
 2432SOL    HW1 7315   3.324   4.647   0.203
 2432SOL    HW2 7316   3.435   4.741   0.276
 2433SOL     OW 7317   2.179   3.975   1.801
 2433SOL    HW1 7318   2.250   4.046   1.807
 2433SOL    HW2 7319   2.091   4.014   1.829
 2434SOL     OW 7320   2.460   4.453   0.270
 2434SOL    HW1 7321   2.484   4.522   0.202
 2434SOL    HW2 7322   2.382   4.486   0.324
 2435SOL     OW 7323   3.143   4.069   0.944
 2435SOL    HW1 7324   3.057   4.019   0.931
 2435SOL    HW2 7325   3.205   4.015   1.000
 2436SOL     OW 7326   2.669   4.329   1.465
 2436SOL    HW1 7327   2.622   4.326   1.554
 2436SOL    HW2 7328   2.618   4.274   1.399
 2437SOL     OW 7329   3.256   4.193   1.674
 2437SOL    HW1 7330   3.236   4.236   1.762
 2437SOL    HW2 7331   3.334   4.131   1.683
 2438SOL     OW 7332   2.835   4.614   1.572
 2438SOL    HW1 7333   2.881   4.530   1.543
 2438SOL    HW2 7334   2.779   4.648   1.497
 2439SOL     OW 7335   2.853   4.134   1.242
 2439SOL    HW1 7336   2.776   4.168   1.296
 2439SOL    HW2 7337   2.819   4.083   1.163
 2440SOL     OW 7338   2.903   4.425   0.429
 2440SOL    HW1 7339   2.929   4.421   0.525
 2440SOL    HW2 7340   2.818   4.374   0.415
 2441SOL     OW 7341   1.938   4.535   0.789
 2441SOL    HW1 7342   2.037   4.523   0.798
 2441SOL    HW2 7343   1.914   4.630   0.810
 2442SOL     OW 7344   2.727   4.072   0.195
 2442SOL    HW1 7345   2.786   4.135   0.146
 2442SOL    HW2 7346   2.746   3.978   0.166
 2443SOL     OW 7347   3.581   4.309   1.831
 2443SOL    HW1 7348   3.555   4.398   1.795
 2443SOL    HW2 7349   3.579   4.241   1.758
 2444SOL     OW 7350   2.412   3.920   0.885
 2444SOL    HW1 7351   2.407   3.915   0.985
 2444SOL    HW2 7352   2.414   4.016   0.856
 2445SOL     OW 7353   3.320   4.459   0.728
 2445SOL    HW1 7354   3.315   4.394   0.803
 2445SOL    HW2 7355   3.400   4.518   0.741
 2446SOL     OW 7356   2.064   4.009   1.498
 2446SOL    HW1 7357   1.984   4.069   1.485
 2446SOL    HW2 7358   2.054   3.960   1.584
 2447SOL     OW 7359   3.262   3.831   0.426
 2447SOL    HW1 7360   3.238   3.794   0.336
 2447SOL    HW2 7361   3.361   3.847   0.430
 2448SOL     OW 7362   2.244   4.424   0.480
 2448SOL    HW1 7363   2.289   4.334   0.477
 2448SOL    HW2 7364   2.150   4.413   0.513
 2449SOL     OW 7365   3.409   3.946   1.729
 2449SOL    HW1 7366   3.404   3.983   1.821
 2449SOL    HW2 7367   3.337   3.877   1.717
 2450SOL     OW 7368   2.476   3.846   0.117
 2450SOL    HW1 7369   2.574   3.824   0.124
 2450SOL    HW2 7370   2.445   3.829   0.024
 2451SOL     OW 7371   2.643   3.988   1.749
 2451SOL    HW1 7372   2.710   3.927   1.792
 2451SOL    HW2 7373   2.570   4.007   1.814
 2452SOL     OW 7374   3.213   4.314   1.433
 2452SOL    HW1 7375   3.241   4.271   1.518
 2452SOL    HW2 7376   3.238   4.410   1.434
 2453SOL     OW 7377   2.784   4.227   0.899
 2453SOL    HW1 7378   2.759   4.218   0.803
 2453SOL    HW2 7379   2.832   4.145   0.930
 2454SOL     OW 7380   2.401   3.788   0.512
 2454SOL    HW1 7381   2.320   3.789   0.570
 2454SOL    HW2 7382   2.404   3.871   0.457
 2455SOL     OW 7383   2.159   3.759   0.171
 2455SOL    HW1 7384   2.208   3.843   0.150
 2455SOL    HW2 7385   2.221   3.694   0.216
 2456SOL     OW 7386   2.797   3.960   0.480
 2456SOL    HW1 7387   2.749   4.001   0.402
 2456SOL    HW2 7388   2.896   3.958   0.461
 2457SOL     OW 7389   2.938   4.407   1.464
 2457SOL    HW1 7390   2.858   4.346   1.467
 2457SOL    HW2 7391   3.019   4.354   1.440
 2458SOL     OW 7392   2.894   4.273   0.016
 2458SOL    HW1 7393   2.853   4.355  -0.023
 2458SOL    HW2 7394   2.958   4.299   0.089
 2459SOL     OW 7395   1.940   4.280   1.386
 2459SOL    HW1 7396   2.032   4.279   1.345
 2459SOL    HW2 7397   1.934   4.354   1.453
 2460SOL     OW 7398   2.423   3.946   1.147
 2460SOL    HW1 7399   2.461   3.862   1.184
 2460SOL    HW2 7400   2.335   3.965   1.191
 2461SOL     OW 7401   2.728   4.178   0.642
 2461SOL    HW1 7402   2.696   4.250   0.580
 2461SOL    HW2 7403   2.752   4.097   0.589
 2462SOL     OW 7404   2.879   3.763   0.753
 2462SOL    HW1 7405   2.807   3.768   0.684
 2462SOL    HW2 7406   2.855   3.694   0.822
 2463SOL     OW 7407   3.328   4.314   0.992
 2463SOL    HW1 7408   3.298   4.219   0.999
 2463SOL    HW2 7409   3.401   4.330   1.058
 2464SOL     OW 7410   3.719   4.557   0.377
 2464SOL    HW1 7411   3.761   4.493   0.441
 2464SOL    HW2 7412   3.681   4.506   0.299
 2465SOL     OW 7413   3.252   4.299   0.078
 2465SOL    HW1 7414   3.198   4.278   0.159
 2465SOL    HW2 7415   3.343   4.258   0.087
 2466SOL     OW 7416   2.389   3.980   0.328
 2466SOL    HW1 7417   2.416   3.921   0.253
 2466SOL    HW2 7418   2.389   4.075   0.297
 2467SOL     OW 7419   3.500   4.823   1.079
 2467SOL    HW1 7420   3.505   4.904   1.138
 2467SOL    HW2 7421   3.414   4.825   1.028
 2468SOL     OW 7422   2.777   3.813   1.402
 2468SOL    HW1 7423   2.802   3.793   1.307
 2468SOL    HW2 7424   2.849   3.869   1.444
 2469SOL     OW 7425   2.272   4.537   1.251
 2469SOL    HW1 7426   2.358   4.549   1.301
 2469SOL    HW2 7427   2.230   4.450   1.278
 2470SOL     OW 7428   3.136   4.110   1.262
 2470SOL    HW1 7429   3.157   4.184   1.326
 2470SOL    HW2 7430   3.047   4.127   1.219
 2471SOL     OW 7431   2.428   4.261   0.865
 2471SOL    HW1 7432   2.440   4.327   0.791
 2471SOL    HW2 7433   2.474   4.295   0.948
 2472SOL     OW 7434   3.444   4.363   0.472
 2472SOL    HW1 7435   3.413   4.424   0.545
 2472SOL    HW2 7436   3.494   4.415   0.403
 2473SOL     OW 7437   2.264   4.475   1.598
 2473SOL    HW1 7438   2.332   4.530   1.551
 2473SOL    HW2 7439   2.304   4.387   1.625
 2474SOL     OW 7440   3.449   4.503   1.670
 2474SOL    HW1 7441   3.357   4.541   1.665
 2474SOL    HW2 7442   3.509   4.550   1.605
 2475SOL     OW 7443   2.875   3.829   1.770
 2475SOL    HW1 7444   2.881   3.914   1.718
 2475SOL    HW2 7445   2.907   3.753   1.713
 2476SOL     OW 7446   2.366   3.774   1.740
 2476SOL    HW1 7447   2.324   3.717   1.670
 2476SOL    HW2 7448   2.300   3.843   1.772
 2477SOL     OW 7449   2.435   4.594   1.029
 2477SOL    HW1 7450   2.479   4.683   1.020
 2477SOL    HW2 7451   2.372   4.594   1.106
 2478SOL     OW 7452   3.222   4.586   1.045
 2478SOL    HW1 7453   3.147   4.586   0.979
 2478SOL    HW2 7454   3.259   4.494   1.054
 2479SOL     OW 7455   3.071   4.249   0.275
 2479SOL    HW1 7456   3.084   4.165   0.329
 2479SOL    HW2 7457   3.042   4.323   0.335
 2480SOL     OW 7458   2.169   3.937   1.231
 2480SOL    HW1 7459   2.146   3.974   1.321
 2480SOL    HW2 7460   2.139   3.842   1.225
 2481SOL     OW 7461   2.594   4.358   1.064
 2481SOL    HW1 7462   2.653   4.332   0.988
 2481SOL    HW2 7463   2.566   4.454   1.053
 2482SOL     OW 7464   3.590   4.659   1.854
 2482SOL    HW1 7465   3.544   4.652   1.765
 2482SOL    HW2 7466   3.528   4.703   1.920
 2483SOL     OW 7467   2.169   3.787   0.618
 2483SOL    HW1 7468   2.158   3.881   0.651
 2483SOL    HW2 7469   2.164   3.724   0.695
 2484SOL     OW 7470   3.484   4.091   0.374
 2484SOL    HW1 7471   3.486   4.015   0.438
 2484SOL    HW2 7472   3.436   4.168   0.414
 2485SOL     OW 7473   2.885   4.490   0.966
 2485SOL    HW1 7474   2.900   4.511   1.062
 2485SOL    HW2 7475   2.855   4.395   0.957
 2486SOL     OW 7476   2.212   4.622   1.804
 2486SOL    HW1 7477   2.288   4.666   1.852
 2486SOL    HW2 7478   2.247   4.575   1.722
 2487SOL     OW 7479   3.402   3.998   0.125
 2487SOL    HW1 7480   3.341   3.923   0.148
 2487SOL    HW2 7481   3.424   4.050   0.208
 2488SOL     OW 7482   3.165   4.562   0.042
 2488SOL    HW1 7483   3.199   4.469   0.057
 2488SOL    HW2 7484   3.183   4.589  -0.053
 2489SOL     OW 7485   2.181   4.534   0.949
 2489SOL    HW1 7486   2.274   4.570   0.954
 2489SOL    HW2 7487   2.175   4.449   1.001
 2490SOL     OW 7488   2.201   4.233   1.006
 2490SOL    HW1 7489   2.149   4.150   0.989
 2490SOL    HW2 7490   2.278   4.238   0.942
 2491SOL     OW 7491   3.000   4.104   1.678
 2491SOL    HW1 7492   2.955   4.167   1.742
 2491SOL    HW2 7493   3.093   4.135   1.661
 2492SOL     OW 7494   3.022   3.931   1.477
 2492SOL    HW1 7495   3.022   3.995   1.554
 2492SOL    HW2 7496   3.050   3.979   1.394
 2493SOL     OW 7497   2.864   4.520   1.238
 2493SOL    HW1 7498   2.905   4.488   1.324
 2493SOL    HW2 7499   2.768   4.493   1.235
 2494SOL     OW 7500   1.902   4.268   1.114
 2494SOL    HW1 7501   1.987   4.235   1.073
 2494SOL    HW2 7502   1.915   4.283   1.212
 2495SOL     OW 7503   2.051   4.244   1.722
 2495SOL    HW1 7504   2.110   4.204   1.652
 2495SOL    HW2 7505   1.993   4.315   1.681
 2496SOL     OW 7506   3.231   4.674   1.660
 2496SOL    HW1 7507   3.270   4.763   1.680
 2496SOL    HW2 7508   3.241   4.654   1.563
 2497SOL     OW 7509   2.677   4.296   0.325
 2497SOL    HW1 7510   2.684   4.207   0.279
 2497SOL    HW2 7511   2.583   4.330   0.317
 2498SOL     OW 7512   3.519   4.328   1.206
 2498SOL    HW1 7513   3.481   4.259   1.268
 2498SOL    HW2 7514   3.601   4.292   1.162
 2499SOL     OW 7515   2.533   4.188   1.269
 2499SOL    HW1 7516   2.499   4.099   1.239
 2499SOL    HW2 7517   2.559   4.242   1.189
 2500SOL     OW 7518   2.335   4.224   0.191
 2500SOL    HW1 7519   2.396   4.304   0.195
 2500SOL    HW2 7520   2.240   4.255   0.198
 2501SOL     OW 7521   2.021   4.861   1.466
 2501SOL    HW1 7522   2.043   4.800   1.542
 2501SOL    HW2 7523   2.031   4.812   1.380
 2502SOL     OW 7524   3.209   4.783   1.234
 2502SOL    HW1 7525   3.233   4.720   1.160
 2502SOL    HW2 7526   3.119   4.823   1.216
 2503SOL     OW 7527   3.164   4.579   0.309
 2503SOL    HW1 7528   3.078   4.548   0.351
 2503SOL    HW2 7529   3.160   4.565   0.210
 2504SOL     OW 7530   2.765   3.810   0.133
 2504SOL    HW1 7531   2.816   3.811   0.047
 2504SOL    HW2 7532   2.821   3.768   0.204
 2505SOL     OW 7533   3.588   3.859   0.523
 2505SOL    HW1 7534   3.661   3.842   0.456
 2505SOL    HW2 7535   3.557   3.772   0.561
 2506SOL     OW 7536   3.142   4.651   0.672
 2506SOL    HW1 7537   3.202   4.570   0.674
 2506SOL    HW2 7538   3.182   4.720   0.612
 2507SOL     OW 7539   3.703   3.899   0.963
 2507SOL    HW1 7540   3.742   3.814   0.927
 2507SOL    HW2 7541   3.605   3.901   0.944
 2508SOL     OW 7542   2.125   4.050   0.720
 2508SOL    HW1 7543   2.046   4.101   0.686
 2508SOL    HW2 7544   2.116   4.035   0.818
 2509SOL     OW 7545   2.876   3.960   0.971
 2509SOL    HW1 7546   2.868   3.924   0.878
 2509SOL    HW2 7547   2.874   3.884   1.036
 2510SOL     OW 7548   3.571   4.109   1.381
 2510SOL    HW1 7549   3.644   4.178   1.385
 2510SOL    HW2 7550   3.599   4.034   1.322
 2511SOL     OW 7551   1.967   4.737   1.726
 2511SOL    HW1 7552   1.890   4.704   1.780
 2511SOL    HW2 7553   2.052   4.707   1.768
 2512SOL     OW 7554   2.534   3.927   1.489
 2512SOL    HW1 7555   2.624   3.911   1.449
 2512SOL    HW2 7556   2.542   3.932   1.588
 2513SOL     OW 7557   3.302   4.580   1.398
 2513SOL    HW1 7558   3.245   4.632   1.335
 2513SOL    HW2 7559   3.398   4.592   1.374
 2514SOL     OW 7560   2.475   4.566   1.431
 2514SOL    HW1 7561   2.531   4.647   1.414
 2514SOL    HW2 7562   2.534   4.486   1.434
 2515SOL     OW 7563   2.578   4.289   1.708
 2515SOL    HW1 7564   2.597   4.354   1.782
 2515SOL    HW2 7565   2.638   4.209   1.717
 2516SOL     OW 7566   3.536   4.607   1.254
 2516SOL    HW1 7567   3.509   4.518   1.217
 2516SOL    HW2 7568   3.537   4.675   1.181
 2517SOL     OW 7569   3.087   4.049   0.449
 2517SOL    HW1 7570   3.152   3.975   0.438
 2517SOL    HW2 7571   3.107   4.099   0.533
 2518SOL     OW 7572   2.456   4.469   0.652
 2518SOL    HW1 7573   2.506   4.554   0.633
 2518SOL    HW2 7574   2.368   4.471   0.604
 2519SOL     OW 7575   3.639   4.066   1.642
 2519SOL    HW1 7576   3.622   4.097   1.548
 2519SOL    HW2 7577   3.555   4.029   1.680
 2520SOL     OW 7578   3.592   4.658   1.517
 2520SOL    HW1 7579   3.630   4.749   1.532
 2520SOL    HW2 7580   3.584   4.641   1.418
 2521SOL     OW 7581   3.686   3.916   1.227
 2521SOL    HW1 7582   3.682   3.826   1.271
 2521SOL    HW2 7583   3.689   3.905   1.128
 2522SOL     OW 7584   2.290   4.148   0.520
 2522SOL    HW1 7585   2.320   4.076   0.458
 2522SOL    HW2 7586   2.251   4.108   0.603
 2523SOL     OW 7587   2.179   4.271   1.280
 2523SOL    HW1 7588   2.217   4.212   1.352
 2523SOL    HW2 7589   2.219   4.245   1.192
 2524SOL     OW 7590   3.286   3.938   1.112
 2524SOL    HW1 7591   3.338   3.873   1.167
 2524SOL    HW2 7592   3.237   4.001   1.173
 2525SOL     OW 7593   2.863   3.758   1.154
 2525SOL    HW1 7594   2.800   3.686   1.123
 2525SOL    HW2 7595   2.956   3.722   1.154
 2526SOL     OW 7596   3.214   3.776   0.168
 2526SOL    HW1 7597   3.249   3.735   0.084
 2526SOL    HW2 7598   3.124   3.738   0.188
 2527SOL     OW 7599   3.162   4.177   0.691
 2527SOL    HW1 7600   3.103   4.257   0.695
 2527SOL    HW2 7601   3.177   4.142   0.784
 2528SOL     OW 7602   3.455   3.945   0.882
 2528SOL    HW1 7603   3.371   3.944   0.936
 2528SOL    HW2 7604   3.457   4.028   0.826
 2529SOL     OW 7605   2.092   4.352   1.975
 2529SOL    HW1 7606   1.999   4.350   2.012
 2529SOL    HW2 7607   2.093   4.313   1.883
 2530SOL     OW 7608   2.087   3.999   2.858
 2530SOL    HW1 7609   2.122   3.982   2.950
 2530SOL    HW2 7610   1.999   3.954   2.846
 2531SOL     OW 7611   1.881   4.092   2.509
 2531SOL    HW1 7612   1.799   4.135   2.548
 2531SOL    HW2 7613   1.853   4.019   2.446
 2532SOL     OW 7614   2.997   4.427   2.579
 2532SOL    HW1 7615   3.054   4.505   2.554
 2532SOL    HW2 7616   2.937   4.453   2.655
 2533SOL     OW 7617   3.617   4.331   2.093
 2533SOL    HW1 7618   3.605   4.318   1.994
 2533SOL    HW2 7619   3.587   4.250   2.142
 2534SOL     OW 7620   2.712   4.522   3.685
 2534SOL    HW1 7621   2.708   4.598   3.750
 2534SOL    HW2 7622   2.734   4.558   3.594
 2535SOL     OW 7623   2.547   4.736   2.527
 2535SOL    HW1 7624   2.616   4.720   2.597
 2535SOL    HW2 7625   2.474   4.793   2.565
 2536SOL     OW 7626   2.300   4.116   3.361
 2536SOL    HW1 7627   2.382   4.060   3.370
 2536SOL    HW2 7628   2.219   4.058   3.365
 2537SOL     OW 7629   3.465   4.171   2.599
 2537SOL    HW1 7630   3.391   4.217   2.549
 2537SOL    HW2 7631   3.516   4.239   2.652
 2538SOL     OW 7632   3.456   3.838   3.342
 2538SOL    HW1 7633   3.438   3.905   3.270
 2538SOL    HW2 7634   3.453   3.884   3.431
 2539SOL     OW 7635   1.984   4.367   2.425
 2539SOL    HW1 7636   1.939   4.279   2.442
 2539SOL    HW2 7637   1.983   4.421   2.509
 2540SOL     OW 7638   1.975   4.461   3.459
 2540SOL    HW1 7639   2.063   4.448   3.504
 2540SOL    HW2 7640   1.962   4.558   3.437
 2541SOL     OW 7641   2.671   3.728   2.364
 2541SOL    HW1 7642   2.711   3.819   2.355
 2541SOL    HW2 7643   2.571   3.736   2.370
 2542SOL     OW 7644   2.059   4.700   3.126
 2542SOL    HW1 7645   2.148   4.655   3.112
 2542SOL    HW2 7646   1.986   4.635   3.107
 2543SOL     OW 7647   3.387   4.723   2.052
 2543SOL    HW1 7648   3.324   4.647   2.065
 2543SOL    HW2 7649   3.435   4.741   2.138
 2544SOL     OW 7650   2.179   3.975   3.663
 2544SOL    HW1 7651   2.250   4.046   3.669
 2544SOL    HW2 7652   2.091   4.014   3.691
 2545SOL     OW 7653   2.460   4.453   2.132
 2545SOL    HW1 7654   2.484   4.522   2.064
 2545SOL    HW2 7655   2.382   4.486   2.186
 2546SOL     OW 7656   3.143   4.069   2.806
 2546SOL    HW1 7657   3.057   4.019   2.793
 2546SOL    HW2 7658   3.205   4.015   2.862
 2547SOL     OW 7659   2.669   4.329   3.327
 2547SOL    HW1 7660   2.622   4.326   3.416
 2547SOL    HW2 7661   2.618   4.274   3.261
 2548SOL     OW 7662   3.256   4.193   3.536
 2548SOL    HW1 7663   3.236   4.236   3.624
 2548SOL    HW2 7664   3.334   4.131   3.545
 2549SOL     OW 7665   2.835   4.614   3.434
 2549SOL    HW1 7666   2.881   4.530   3.405
 2549SOL    HW2 7667   2.779   4.648   3.359
 2550SOL     OW 7668   2.853   4.134   3.104
 2550SOL    HW1 7669   2.776   4.168   3.158
 2550SOL    HW2 7670   2.819   4.083   3.025
 2551SOL     OW 7671   2.903   4.425   2.291
 2551SOL    HW1 7672   2.929   4.421   2.387
 2551SOL    HW2 7673   2.818   4.374   2.277
 2552SOL     OW 7674   1.938   4.535   2.651
 2552SOL    HW1 7675   2.037   4.523   2.660
 2552SOL    HW2 7676   1.914   4.630   2.672
 2553SOL     OW 7677   2.727   4.072   2.057
 2553SOL    HW1 7678   2.786   4.135   2.008
 2553SOL    HW2 7679   2.746   3.978   2.028
 2554SOL     OW 7680   3.581   4.309   3.693
 2554SOL    HW1 7681   3.555   4.398   3.657
 2554SOL    HW2 7682   3.579   4.241   3.620
 2555SOL     OW 7683   2.412   3.920   2.747
 2555SOL    HW1 7684   2.407   3.915   2.847
 2555SOL    HW2 7685   2.414   4.016   2.718
 2556SOL     OW 7686   3.320   4.459   2.590
 2556SOL    HW1 7687   3.315   4.394   2.665
 2556SOL    HW2 7688   3.400   4.518   2.603
 2557SOL     OW 7689   2.064   4.009   3.360
 2557SOL    HW1 7690   1.984   4.069   3.347
 2557SOL    HW2 7691   2.054   3.960   3.446
 2558SOL     OW 7692   3.262   3.831   2.288
 2558SOL    HW1 7693   3.238   3.794   2.198
 2558SOL    HW2 7694   3.361   3.847   2.292
 2559SOL     OW 7695   2.244   4.424   2.342
 2559SOL    HW1 7696   2.289   4.334   2.339
 2559SOL    HW2 7697   2.150   4.413   2.375
 2560SOL     OW 7698   3.409   3.946   3.591
 2560SOL    HW1 7699   3.404   3.983   3.683
 2560SOL    HW2 7700   3.337   3.877   3.579
 2561SOL     OW 7701   2.476   3.846   1.979
 2561SOL    HW1 7702   2.574   3.824   1.986
 2561SOL    HW2 7703   2.445   3.829   1.886
 2562SOL     OW 7704   2.643   3.988   3.611
 2562SOL    HW1 7705   2.710   3.927   3.654
 2562SOL    HW2 7706   2.570   4.007   3.676
 2563SOL     OW 7707   3.213   4.314   3.295
 2563SOL    HW1 7708   3.241   4.271   3.380
 2563SOL    HW2 7709   3.238   4.410   3.296
 2564SOL     OW 7710   2.784   4.227   2.761
 2564SOL    HW1 7711   2.759   4.218   2.665
 2564SOL    HW2 7712   2.832   4.145   2.792
 2565SOL     OW 7713   2.401   3.788   2.374
 2565SOL    HW1 7714   2.320   3.789   2.432
 2565SOL    HW2 7715   2.404   3.871   2.319
 2566SOL     OW 7716   2.159   3.759   2.033
 2566SOL    HW1 7717   2.208   3.843   2.012
 2566SOL    HW2 7718   2.221   3.694   2.078
 2567SOL     OW 7719   2.797   3.960   2.342
 2567SOL    HW1 7720   2.749   4.001   2.264
 2567SOL    HW2 7721   2.896   3.958   2.323
 2568SOL     OW 7722   2.938   4.407   3.326
 2568SOL    HW1 7723   2.858   4.346   3.329
 2568SOL    HW2 7724   3.019   4.354   3.302
 2569SOL     OW 7725   2.894   4.273   1.878
 2569SOL    HW1 7726   2.853   4.355   1.839
 2569SOL    HW2 7727   2.958   4.299   1.951
 2570SOL     OW 7728   1.940   4.280   3.248
 2570SOL    HW1 7729   2.032   4.279   3.207
 2570SOL    HW2 7730   1.934   4.354   3.315
 2571SOL     OW 7731   2.423   3.946   3.009
 2571SOL    HW1 7732   2.461   3.862   3.046
 2571SOL    HW2 7733   2.335   3.965   3.053
 2572SOL     OW 7734   2.728   4.178   2.504
 2572SOL    HW1 7735   2.696   4.250   2.442
 2572SOL    HW2 7736   2.752   4.097   2.451
 2573SOL     OW 7737   2.879   3.763   2.615
 2573SOL    HW1 7738   2.807   3.768   2.546
 2573SOL    HW2 7739   2.855   3.694   2.684
 2574SOL     OW 7740   3.328   4.314   2.854
 2574SOL    HW1 7741   3.298   4.219   2.861
 2574SOL    HW2 7742   3.401   4.330   2.920
 2575SOL     OW 7743   3.719   4.557   2.239
 2575SOL    HW1 7744   3.761   4.493   2.303
 2575SOL    HW2 7745   3.681   4.506   2.161
 2576SOL     OW 7746   3.252   4.299   1.940
 2576SOL    HW1 7747   3.198   4.278   2.021
 2576SOL    HW2 7748   3.343   4.258   1.949
 2577SOL     OW 7749   2.389   3.980   2.190
 2577SOL    HW1 7750   2.416   3.921   2.115
 2577SOL    HW2 7751   2.389   4.075   2.159
 2578SOL     OW 7752   3.500   4.823   2.941
 2578SOL    HW1 7753   3.505   4.904   3.000
 2578SOL    HW2 7754   3.414   4.825   2.890
 2579SOL     OW 7755   2.777   3.813   3.264
 2579SOL    HW1 7756   2.802   3.793   3.169
 2579SOL    HW2 7757   2.849   3.869   3.306
 2580SOL     OW 7758   2.272   4.537   3.113
 2580SOL    HW1 7759   2.358   4.549   3.163
 2580SOL    HW2 7760   2.230   4.450   3.140
 2581SOL     OW 7761   3.136   4.110   3.124
 2581SOL    HW1 7762   3.157   4.184   3.188
 2581SOL    HW2 7763   3.047   4.127   3.081
 2582SOL     OW 7764   2.428   4.261   2.727
 2582SOL    HW1 7765   2.440   4.327   2.653
 2582SOL    HW2 7766   2.474   4.295   2.810
 2583SOL     OW 7767   3.444   4.363   2.334
 2583SOL    HW1 7768   3.413   4.424   2.407
 2583SOL    HW2 7769   3.494   4.415   2.265
 2584SOL     OW 7770   2.264   4.475   3.460
 2584SOL    HW1 7771   2.332   4.530   3.413
 2584SOL    HW2 7772   2.304   4.387   3.487
 2585SOL     OW 7773   3.449   4.503   3.532
 2585SOL    HW1 7774   3.357   4.541   3.527
 2585SOL    HW2 7775   3.509   4.550   3.467
 2586SOL     OW 7776   2.875   3.829   3.632
 2586SOL    HW1 7777   2.881   3.914   3.580
 2586SOL    HW2 7778   2.907   3.753   3.575
 2587SOL     OW 7779   2.366   3.774   3.602
 2587SOL    HW1 7780   2.324   3.717   3.532
 2587SOL    HW2 7781   2.300   3.843   3.634
 2588SOL     OW 7782   2.435   4.594   2.891
 2588SOL    HW1 7783   2.479   4.683   2.882
 2588SOL    HW2 7784   2.372   4.594   2.968
 2589SOL     OW 7785   3.222   4.586   2.907
 2589SOL    HW1 7786   3.147   4.586   2.841
 2589SOL    HW2 7787   3.259   4.494   2.916
 2590SOL     OW 7788   3.071   4.249   2.137
 2590SOL    HW1 7789   3.084   4.165   2.191
 2590SOL    HW2 7790   3.042   4.323   2.197
 2591SOL     OW 7791   2.169   3.937   3.093
 2591SOL    HW1 7792   2.146   3.974   3.183
 2591SOL    HW2 7793   2.139   3.842   3.087
 2592SOL     OW 7794   2.594   4.358   2.926
 2592SOL    HW1 7795   2.653   4.332   2.850
 2592SOL    HW2 7796   2.566   4.454   2.915
 2593SOL     OW 7797   3.590   4.659   3.716
 2593SOL    HW1 7798   3.544   4.652   3.627
 2593SOL    HW2 7799   3.528   4.703   3.782
 2594SOL     OW 7800   2.169   3.787   2.480
 2594SOL    HW1 7801   2.158   3.881   2.513
 2594SOL    HW2 7802   2.164   3.724   2.557
 2595SOL     OW 7803   3.484   4.091   2.236
 2595SOL    HW1 7804   3.486   4.015   2.300
 2595SOL    HW2 7805   3.436   4.168   2.276
 2596SOL     OW 7806   2.885   4.490   2.828
 2596SOL    HW1 7807   2.900   4.511   2.924
 2596SOL    HW2 7808   2.855   4.395   2.819
 2597SOL     OW 7809   2.212   4.622   3.666
 2597SOL    HW1 7810   2.288   4.666   3.714
 2597SOL    HW2 7811   2.247   4.575   3.584
 2598SOL     OW 7812   3.402   3.998   1.987
 2598SOL    HW1 7813   3.341   3.923   2.010
 2598SOL    HW2 7814   3.424   4.050   2.070
 2599SOL     OW 7815   3.165   4.562   1.904
 2599SOL    HW1 7816   3.199   4.469   1.919
 2599SOL    HW2 7817   3.183   4.589   1.809
 2600SOL     OW 7818   2.181   4.534   2.811
 2600SOL    HW1 7819   2.274   4.570   2.816
 2600SOL    HW2 7820   2.175   4.449   2.863
 2601SOL     OW 7821   2.201   4.233   2.868
 2601SOL    HW1 7822   2.149   4.150   2.851
 2601SOL    HW2 7823   2.278   4.238   2.804
 2602SOL     OW 7824   3.000   4.104   3.540
 2602SOL    HW1 7825   2.955   4.167   3.604
 2602SOL    HW2 7826   3.093   4.135   3.523
 2603SOL     OW 7827   3.022   3.931   3.339
 2603SOL    HW1 7828   3.022   3.995   3.416
 2603SOL    HW2 7829   3.050   3.979   3.256
 2604SOL     OW 7830   2.864   4.520   3.100
 2604SOL    HW1 7831   2.905   4.488   3.186
 2604SOL    HW2 7832   2.768   4.493   3.097
 2605SOL     OW 7833   1.902   4.268   2.976
 2605SOL    HW1 7834   1.987   4.235   2.935
 2605SOL    HW2 7835   1.915   4.283   3.074
 2606SOL     OW 7836   2.051   4.244   3.584
 2606SOL    HW1 7837   2.110   4.204   3.514
 2606SOL    HW2 7838   1.993   4.315   3.543
 2607SOL     OW 7839   3.231   4.674   3.522
 2607SOL    HW1 7840   3.270   4.763   3.542
 2607SOL    HW2 7841   3.241   4.654   3.425
 2608SOL     OW 7842   2.677   4.296   2.187
 2608SOL    HW1 7843   2.684   4.207   2.141
 2608SOL    HW2 7844   2.583   4.330   2.179
 2609SOL     OW 7845   3.519   4.328   3.068
 2609SOL    HW1 7846   3.481   4.259   3.130
 2609SOL    HW2 7847   3.601   4.292   3.024
 2610SOL     OW 7848   2.533   4.188   3.131
 2610SOL    HW1 7849   2.499   4.099   3.101
 2610SOL    HW2 7850   2.559   4.242   3.051
 2611SOL     OW 7851   2.335   4.224   2.053
 2611SOL    HW1 7852   2.396   4.304   2.057
 2611SOL    HW2 7853   2.240   4.255   2.060
 2612SOL     OW 7854   2.021   4.861   3.328
 2612SOL    HW1 7855   2.043   4.800   3.404
 2612SOL    HW2 7856   2.031   4.812   3.242
 2613SOL     OW 7857   3.209   4.783   3.096
 2613SOL    HW1 7858   3.233   4.720   3.022
 2613SOL    HW2 7859   3.119   4.823   3.078
 2614SOL     OW 7860   3.164   4.579   2.171
 2614SOL    HW1 7861   3.078   4.548   2.213
 2614SOL    HW2 7862   3.160   4.565   2.072
 2615SOL     OW 7863   3.588   3.859   2.385
 2615SOL    HW1 7864   3.661   3.842   2.318
 2615SOL    HW2 7865   3.557   3.772   2.423
 2616SOL     OW 7866   3.142   4.651   2.534
 2616SOL    HW1 7867   3.202   4.570   2.536
 2616SOL    HW2 7868   3.182   4.720   2.474
 2617SOL     OW 7869   3.703   3.899   2.825
 2617SOL    HW1 7870   3.742   3.814   2.789
 2617SOL    HW2 7871   3.605   3.901   2.806
 2618SOL     OW 7872   2.125   4.050   2.582
 2618SOL    HW1 7873   2.046   4.101   2.548
 2618SOL    HW2 7874   2.116   4.035   2.680
 2619SOL     OW 7875   2.778   4.634   2.153
 2619SOL    HW1 7876   2.841   4.672   2.085
 2619SOL    HW2 7877   2.818   4.551   2.192
 2620SOL     OW 7878   2.876   3.960   2.833
 2620SOL    HW1 7879   2.868   3.924   2.740
 2620SOL    HW2 7880   2.874   3.884   2.898
 2621SOL     OW 7881   3.571   4.109   3.243
 2621SOL    HW1 7882   3.644   4.178   3.247
 2621SOL    HW2 7883   3.599   4.034   3.184
 2622SOL     OW 7884   1.967   4.737   3.588
 2622SOL    HW1 7885   1.890   4.704   3.642
 2622SOL    HW2 7886   2.052   4.707   3.630
 2623SOL     OW 7887   2.534   3.927   3.351
 2623SOL    HW1 7888   2.624   3.911   3.311
 2623SOL    HW2 7889   2.542   3.932   3.450
 2624SOL     OW 7890   1.937   4.069   1.895
 2624SOL    HW1 7891   1.845   4.041   1.866
 2624SOL    HW2 7892   1.968   4.146   1.839
 2625SOL     OW 7893   3.302   4.580   3.260
 2625SOL    HW1 7894   3.245   4.632   3.197
 2625SOL    HW2 7895   3.398   4.592   3.236
 2626SOL     OW 7896   1.934   3.890   2.180
 2626SOL    HW1 7897   1.917   3.973   2.126
 2626SOL    HW2 7898   2.024   3.853   2.158
 2627SOL     OW 7899   2.475   4.566   3.293
 2627SOL    HW1 7900   2.531   4.647   3.276
 2627SOL    HW2 7901   2.534   4.486   3.296
 2628SOL     OW 7902   2.578   4.289   3.570
 2628SOL    HW1 7903   2.597   4.354   3.644
 2628SOL    HW2 7904   2.638   4.209   3.579
 2629SOL     OW 7905   3.536   4.607   3.116
 2629SOL    HW1 7906   3.509   4.518   3.079
 2629SOL    HW2 7907   3.537   4.675   3.043
 2630SOL     OW 7908   3.087   4.049   2.311
 2630SOL    HW1 7909   3.152   3.975   2.300
 2630SOL    HW2 7910   3.107   4.099   2.395
 2631SOL     OW 7911   2.456   4.469   2.514
 2631SOL    HW1 7912   2.506   4.554   2.495
 2631SOL    HW2 7913   2.368   4.471   2.466
 2632SOL     OW 7914   3.639   4.066   3.504
 2632SOL    HW1 7915   3.622   4.097   3.410
 2632SOL    HW2 7916   3.555   4.029   3.542
 2633SOL     OW 7917   3.592   4.658   3.379
 2633SOL    HW1 7918   3.630   4.749   3.394
 2633SOL    HW2 7919   3.584   4.641   3.280
 2634SOL     OW 7920   3.686   3.916   3.089
 2634SOL    HW1 7921   3.682   3.826   3.133
 2634SOL    HW2 7922   3.689   3.905   2.990
 2635SOL     OW 7923   2.290   4.148   2.382
 2635SOL    HW1 7924   2.320   4.076   2.320
 2635SOL    HW2 7925   2.251   4.108   2.465
 2636SOL     OW 7926   2.179   4.271   3.142
 2636SOL    HW1 7927   2.217   4.212   3.214
 2636SOL    HW2 7928   2.219   4.245   3.054
 2637SOL     OW 7929   3.286   3.938   2.974
 2637SOL    HW1 7930   3.338   3.873   3.029
 2637SOL    HW2 7931   3.237   4.001   3.035
 2638SOL     OW 7932   2.863   3.758   3.016
 2638SOL    HW1 7933   2.800   3.686   2.985
 2638SOL    HW2 7934   2.956   3.722   3.016
 2639SOL     OW 7935   3.214   3.776   2.030
 2639SOL    HW1 7936   3.249   3.735   1.946
 2639SOL    HW2 7937   3.124   3.738   2.050
 2640SOL     OW 7938   3.162   4.177   2.553
 2640SOL    HW1 7939   3.103   4.257   2.557
 2640SOL    HW2 7940   3.177   4.142   2.646
 2641SOL     OW 7941   3.455   3.945   2.744
 2641SOL    HW1 7942   3.371   3.944   2.798
 2641SOL    HW2 7943   3.457   4.028   2.688
 2642SOL     OW 7944   2.092   4.352   3.837
 2642SOL    HW1 7945   1.999   4.350   3.874
 2642SOL    HW2 7946   2.093   4.313   3.745
 2643SOL     OW 7947   2.087   3.999   4.720
 2643SOL    HW1 7948   2.122   3.982   4.812
 2643SOL    HW2 7949   1.999   3.954   4.708
 2644SOL     OW 7950   1.881   4.092   4.371
 2644SOL    HW1 7951   1.799   4.135   4.410
 2644SOL    HW2 7952   1.853   4.019   4.308
 2645SOL     OW 7953   2.997   4.427   4.441
 2645SOL    HW1 7954   3.054   4.505   4.416
 2645SOL    HW2 7955   2.937   4.453   4.517
 2646SOL     OW 7956   3.617   4.331   3.955
 2646SOL    HW1 7957   3.605   4.318   3.856
 2646SOL    HW2 7958   3.587   4.250   4.004
 2647SOL     OW 7959   2.547   4.736   4.389
 2647SOL    HW1 7960   2.616   4.720   4.459
 2647SOL    HW2 7961   2.474   4.793   4.427
 2648SOL     OW 7962   3.465   4.171   4.461
 2648SOL    HW1 7963   3.391   4.217   4.411
 2648SOL    HW2 7964   3.516   4.239   4.514
 2649SOL     OW 7965   1.984   4.367   4.287
 2649SOL    HW1 7966   1.939   4.279   4.304
 2649SOL    HW2 7967   1.983   4.421   4.371
 2650SOL     OW 7968   2.475   5.089   4.450
 2650SOL    HW1 7969   2.426   5.002   4.459
 2650SOL    HW2 7970   2.452   5.132   4.363
 2651SOL     OW 7971   2.671   3.728   4.226
 2651SOL    HW1 7972   2.711   3.819   4.217
 2651SOL    HW2 7973   2.571   3.736   4.232
 2652SOL     OW 7974   3.387   4.723   3.914
 2652SOL    HW1 7975   3.324   4.647   3.927
 2652SOL    HW2 7976   3.435   4.741   4.000
 2653SOL     OW 7977   2.460   4.453   3.994
 2653SOL    HW1 7978   2.484   4.522   3.926
 2653SOL    HW2 7979   2.382   4.486   4.048
 2654SOL     OW 7980   3.143   4.069   4.668
 2654SOL    HW1 7981   3.057   4.019   4.655
 2654SOL    HW2 7982   3.205   4.015   4.724
 2655SOL     OW 7983   2.903   4.425   4.153
 2655SOL    HW1 7984   2.929   4.421   4.249
 2655SOL    HW2 7985   2.818   4.374   4.139
 2656SOL     OW 7986   1.938   4.535   4.513
 2656SOL    HW1 7987   2.037   4.523   4.522
 2656SOL    HW2 7988   1.914   4.630   4.534
 2657SOL     OW 7989   2.727   4.072   3.919
 2657SOL    HW1 7990   2.786   4.135   3.870
 2657SOL    HW2 7991   2.746   3.978   3.890
 2658SOL     OW 7992   3.320   4.459   4.452
 2658SOL    HW1 7993   3.315   4.394   4.527
 2658SOL    HW2 7994   3.400   4.518   4.465
 2659SOL     OW 7995   3.262   3.831   4.150
 2659SOL    HW1 7996   3.238   3.794   4.060
 2659SOL    HW2 7997   3.361   3.847   4.154
 2660SOL     OW 7998   2.244   4.424   4.204
 2660SOL    HW1 7999   2.289   4.334   4.201
 2660SOL    HW2 8000   2.150   4.413   4.237
 2661SOL     OW 8001   2.476   3.846   3.841
 2661SOL    HW1 8002   2.574   3.824   3.848
 2661SOL    HW2 8003   2.445   3.829   3.748
 2662SOL     OW 8004   2.784   4.227   4.623
 2662SOL    HW1 8005   2.759   4.218   4.527
 2662SOL    HW2 8006   2.832   4.145   4.654
 2663SOL     OW 8007   2.401   3.788   4.236
 2663SOL    HW1 8008   2.320   3.789   4.294
 2663SOL    HW2 8009   2.404   3.871   4.181
 2664SOL     OW 8010   2.159   3.759   3.895
 2664SOL    HW1 8011   2.208   3.843   3.874
 2664SOL    HW2 8012   2.221   3.694   3.940
 2665SOL     OW 8013   2.797   3.960   4.204
 2665SOL    HW1 8014   2.749   4.001   4.126
 2665SOL    HW2 8015   2.896   3.958   4.185
 2666SOL     OW 8016   2.894   4.273   3.740
 2666SOL    HW1 8017   2.853   4.355   3.701
 2666SOL    HW2 8018   2.958   4.299   3.813
 2667SOL     OW 8019   2.728   4.178   4.366
 2667SOL    HW1 8020   2.696   4.250   4.304
 2667SOL    HW2 8021   2.752   4.097   4.313
 2668SOL     OW 8022   2.879   3.763   4.477
 2668SOL    HW1 8023   2.807   3.768   4.408
 2668SOL    HW2 8024   2.855   3.694   4.546
 2669SOL     OW 8025   3.719   4.557   4.101
 2669SOL    HW1 8026   3.761   4.493   4.165
 2669SOL    HW2 8027   3.681   4.506   4.023
 2670SOL     OW 8028   3.252   4.299   3.802
 2670SOL    HW1 8029   3.198   4.278   3.883
 2670SOL    HW2 8030   3.343   4.258   3.811
 2671SOL     OW 8031   2.389   3.980   4.052
 2671SOL    HW1 8032   2.416   3.921   3.977
 2671SOL    HW2 8033   2.389   4.075   4.021
 2672SOL     OW 8034   2.973   4.919   4.824
 2672SOL    HW1 8035   2.933   4.963   4.905
 2672SOL    HW2 8036   2.932   4.956   4.741
 2673SOL     OW 8037   2.428   4.261   4.589
 2673SOL    HW1 8038   2.440   4.327   4.515
 2673SOL    HW2 8039   2.474   4.295   4.672
 2674SOL     OW 8040   3.444   4.363   4.196
 2674SOL    HW1 8041   3.413   4.424   4.269
 2674SOL    HW2 8042   3.494   4.415   4.127
 2675SOL     OW 8043   2.435   4.594   4.753
 2675SOL    HW1 8044   2.479   4.683   4.744
 2675SOL    HW2 8045   2.372   4.594   4.830
 2676SOL     OW 8046   3.071   4.249   3.999
 2676SOL    HW1 8047   3.084   4.165   4.053
 2676SOL    HW2 8048   3.042   4.323   4.059
 2677SOL     OW 8049   2.594   4.358   4.788
 2677SOL    HW1 8050   2.653   4.332   4.712
 2677SOL    HW2 8051   2.566   4.454   4.777
 2678SOL     OW 8052   2.169   3.787   4.342
 2678SOL    HW1 8053   2.158   3.881   4.375
 2678SOL    HW2 8054   2.164   3.724   4.419
 2679SOL     OW 8055   3.484   4.091   4.098
 2679SOL    HW1 8056   3.486   4.015   4.162
 2679SOL    HW2 8057   3.436   4.168   4.138
 2680SOL     OW 8058   3.402   3.998   3.849
 2680SOL    HW1 8059   3.341   3.923   3.872
 2680SOL    HW2 8060   3.424   4.050   3.932
 2681SOL     OW 8061   3.165   4.562   3.766
 2681SOL    HW1 8062   3.199   4.469   3.781
 2681SOL    HW2 8063   3.183   4.589   3.671
 2682SOL     OW 8064   2.181   4.534   4.673
 2682SOL    HW1 8065   2.274   4.570   4.678
 2682SOL    HW2 8066   2.175   4.449   4.725
 2683SOL     OW 8067   2.677   4.296   4.049
 2683SOL    HW1 8068   2.684   4.207   4.003
 2683SOL    HW2 8069   2.583   4.330   4.041
 2684SOL     OW 8070   2.335   4.224   3.915
 2684SOL    HW1 8071   2.396   4.304   3.919
 2684SOL    HW2 8072   2.240   4.255   3.922
 2685SOL     OW 8073   3.164   4.579   4.033
 2685SOL    HW1 8074   3.078   4.548   4.075
 2685SOL    HW2 8075   3.160   4.565   3.934
 2686SOL     OW 8076   3.588   3.859   4.247
 2686SOL    HW1 8077   3.661   3.842   4.180
 2686SOL    HW2 8078   3.557   3.772   4.285
 2687SOL     OW 8079   3.142   4.651   4.396
 2687SOL    HW1 8080   3.202   4.570   4.398
 2687SOL    HW2 8081   3.182   4.720   4.336
 2688SOL     OW 8082   3.703   3.899   4.687
 2688SOL    HW1 8083   3.742   3.814   4.651
 2688SOL    HW2 8084   3.605   3.901   4.668
 2689SOL     OW 8085   2.125   4.050   4.444
 2689SOL    HW1 8086   2.046   4.101   4.410
 2689SOL    HW2 8087   2.116   4.035   4.542
 2690SOL     OW 8088   2.778   4.634   4.015
 2690SOL    HW1 8089   2.841   4.672   3.947
 2690SOL    HW2 8090   2.818   4.551   4.054
 2691SOL     OW 8091   1.937   4.069   3.757
 2691SOL    HW1 8092   1.845   4.041   3.728
 2691SOL    HW2 8093   1.968   4.146   3.701
 2692SOL     OW 8094   1.934   3.890   4.042
 2692SOL    HW1 8095   1.917   3.973   3.988
 2692SOL    HW2 8096   2.024   3.853   4.020
 2693SOL     OW 8097   3.536   4.607   4.978
 2693SOL    HW1 8098   3.509   4.518   4.941
 2693SOL    HW2 8099   3.537   4.675   4.905
 2694SOL     OW 8100   3.087   4.049   4.173
 2694SOL    HW1 8101   3.152   3.975   4.162
 2694SOL    HW2 8102   3.107   4.099   4.257
 2695SOL     OW 8103   2.456   4.469   4.376
 2695SOL    HW1 8104   2.506   4.554   4.357
 2695SOL    HW2 8105   2.368   4.471   4.328
 2696SOL     OW 8106   3.686   3.916   4.951
 2696SOL    HW1 8107   3.682   3.826   4.995
 2696SOL    HW2 8108   3.689   3.905   4.852
 2697SOL     OW 8109   2.290   4.148   4.244
 2697SOL    HW1 8110   2.320   4.076   4.182
 2697SOL    HW2 8111   2.251   4.108   4.327
 2698SOL     OW 8112   3.214   3.776   3.892
 2698SOL    HW1 8113   3.249   3.735   3.808
 2698SOL    HW2 8114   3.124   3.738   3.912
 2699SOL     OW 8115   3.162   4.177   4.415
 2699SOL    HW1 8116   3.103   4.257   4.419
 2699SOL    HW2 8117   3.177   4.142   4.508
 2700SOL     OW 8118   3.455   3.945   4.606
 2700SOL    HW1 8119   3.371   3.944   4.660
 2700SOL    HW2 8120   3.457   4.028   4.550
 2701SOL     OW 8121   3.954   0.628   0.113
 2701SOL    HW1 8122   3.861   0.626   0.150
 2701SOL    HW2 8123   3.955   0.589   0.021
 2702SOL     OW 8124   3.949   0.275   0.996
 2702SOL    HW1 8125   3.984   0.258   1.088
 2702SOL    HW2 8126   3.861   0.230   0.984
 2703SOL     OW 8127   3.743   0.368   0.647
 2703SOL    HW1 8128   3.661   0.411   0.686
 2703SOL    HW2 8129   3.715   0.295   0.584
 2704SOL     OW 8130   4.293   1.275   1.165
 2704SOL    HW1 8131   4.200   1.268   1.128
 2704SOL    HW2 8132   4.304   1.364   1.209
 2705SOL     OW 8133   4.492   1.144   1.023
 2705SOL    HW1 8134   4.414   1.161   1.083
 2705SOL    HW2 8135   4.526   1.231   0.987
 2706SOL     OW 8136   4.574   0.798   1.823
 2706SOL    HW1 8137   4.570   0.874   1.888
 2706SOL    HW2 8138   4.596   0.834   1.732
 2707SOL     OW 8139   4.409   1.012   0.665
 2707SOL    HW1 8140   4.478   0.996   0.735
 2707SOL    HW2 8141   4.336   1.069   0.703
 2708SOL     OW 8142   4.410   1.161   1.803
 2708SOL    HW1 8143   4.470   1.240   1.817
 2708SOL    HW2 8144   4.324   1.192   1.762
 2709SOL     OW 8145   4.059   1.435   1.061
 2709SOL    HW1 8146   3.981   1.404   1.008
 2709SOL    HW2 8147   4.117   1.493   1.004
 2710SOL     OW 8148   4.162   0.392   1.499
 2710SOL    HW1 8149   4.244   0.336   1.508
 2710SOL    HW2 8150   4.081   0.334   1.503
 2711SOL     OW 8151   3.955   1.713   0.483
 2711SOL    HW1 8152   3.989   1.790   0.537
 2711SOL    HW2 8153   3.999   1.713   0.393
 2712SOL     OW 8154   3.954   1.434   0.538
 2712SOL    HW1 8155   3.928   1.530   0.538
 2712SOL    HW2 8156   3.883   1.380   0.583
 2713SOL     OW 8157   3.964   1.091   0.886
 2713SOL    HW1 8158   3.978   1.007   0.938
 2713SOL    HW2 8159   3.909   1.155   0.941
 2714SOL     OW 8160   4.344   1.786   1.439
 2714SOL    HW1 8161   4.252   1.769   1.474
 2714SOL    HW2 8162   4.372   1.878   1.465
 2715SOL     OW 8163   4.330   0.964   0.123
 2715SOL    HW1 8164   4.337   1.048   0.069
 2715SOL    HW2 8165   4.376   0.977   0.211
 2716SOL     OW 8166   3.846   0.643   0.563
 2716SOL    HW1 8167   3.801   0.555   0.580
 2716SOL    HW2 8168   3.845   0.697   0.647
 2717SOL     OW 8169   3.837   0.737   1.597
 2717SOL    HW1 8170   3.925   0.724   1.642
 2717SOL    HW2 8171   3.824   0.834   1.575
 2718SOL     OW 8172   4.337   1.365   0.726
 2718SOL    HW1 8173   4.288   1.278   0.735
 2718SOL    HW2 8174   4.314   1.408   0.639
 2719SOL     OW 8175   4.533   0.004   0.502
 2719SOL    HW1 8176   4.573   0.095   0.493
 2719SOL    HW2 8177   4.433   0.012   0.508
 2720SOL     OW 8178   3.921   0.976   1.264
 2720SOL    HW1 8179   4.010   0.931   1.250
 2720SOL    HW2 8180   3.848   0.911   1.245
 2721SOL     OW 8181   4.041   0.251   1.801
 2721SOL    HW1 8182   4.112   0.322   1.807
 2721SOL    HW2 8183   3.953   0.290   1.829
 2722SOL     OW 8184   4.322   0.729   0.270
 2722SOL    HW1 8185   4.346   0.798   0.202
 2722SOL    HW2 8186   4.244   0.762   0.324
 2723SOL     OW 8187   4.531   0.605   1.465
 2723SOL    HW1 8188   4.484   0.602   1.554
 2723SOL    HW2 8189   4.480   0.550   1.399
 2724SOL     OW 8190   3.800   0.811   0.789
 2724SOL    HW1 8191   3.899   0.799   0.798
 2724SOL    HW2 8192   3.776   0.906   0.810
 2725SOL     OW 8193   3.854   1.821   1.571
 2725SOL    HW1 8194   3.844   1.806   1.670
 2725SOL    HW2 8195   3.768   1.857   1.535
 2726SOL     OW 8196   4.589   0.348   0.195
 2726SOL    HW1 8197   4.648   0.411   0.146
 2726SOL    HW2 8198   4.608   0.254   0.166
 2727SOL     OW 8199   4.274   0.196   0.885
 2727SOL    HW1 8200   4.269   0.191   0.985
 2727SOL    HW2 8201   4.276   0.292   0.856
 2728SOL     OW 8202   4.732   1.456   0.477
 2728SOL    HW1 8203   4.686   1.528   0.425
 2728SOL    HW2 8204   4.728   1.476   0.575
 2729SOL     OW 8205   4.075   1.801   0.853
 2729SOL    HW1 8206   4.125   1.715   0.859
 2729SOL    HW2 8207   4.140   1.878   0.850
 2730SOL     OW 8208   4.045   0.943   0.242
 2730SOL    HW1 8209   4.127   0.982   0.200
 2730SOL    HW2 8210   4.018   0.861   0.193
 2731SOL     OW 8211   4.185   1.266   1.727
 2731SOL    HW1 8212   4.135   1.267   1.641
 2731SOL    HW2 8213   4.122   1.248   1.803
 2732SOL     OW 8214   3.926   0.285   1.498
 2732SOL    HW1 8215   3.846   0.345   1.485
 2732SOL    HW2 8216   3.916   0.236   1.584
 2733SOL     OW 8217   4.188   1.743   0.323
 2733SOL    HW1 8218   4.221   1.782   0.409
 2733SOL    HW2 8219   4.264   1.736   0.258
 2734SOL     OW 8220   3.973   1.785   1.241
 2734SOL    HW1 8221   4.030   1.720   1.291
 2734SOL    HW2 8222   3.957   1.752   1.148
 2735SOL     OW 8223   4.106   0.700   0.480
 2735SOL    HW1 8224   4.151   0.610   0.477
 2735SOL    HW2 8225   4.012   0.689   0.513
 2736SOL     OW 8226   4.338   0.122   0.117
 2736SOL    HW1 8227   4.436   0.100   0.124
 2736SOL    HW2 8228   4.307   0.105   0.024
 2737SOL     OW 8229   4.505   0.264   1.749
 2737SOL    HW1 8230   4.572   0.203   1.792
 2737SOL    HW2 8231   4.432   0.283   1.814
 2738SOL     OW 8232   4.612   1.514   1.195
 2738SOL    HW1 8233   4.589   1.489   1.101
 2738SOL    HW2 8234   4.673   1.445   1.234
 2739SOL     OW 8235   4.527   1.402   0.924
 2739SOL    HW1 8236   4.617   1.416   0.882
 2739SOL    HW2 8237   4.456   1.404   0.853
 2740SOL     OW 8238   4.646   0.503   0.899
 2740SOL    HW1 8239   4.621   0.494   0.803
 2740SOL    HW2 8240   4.694   0.421   0.930
 2741SOL     OW 8241   4.263   0.064   0.512
 2741SOL    HW1 8242   4.182   0.065   0.570
 2741SOL    HW2 8243   4.266   0.147   0.457
 2742SOL     OW 8244   4.021   0.035   0.171
 2742SOL    HW1 8245   4.070   0.119   0.150
 2742SOL    HW2 8246   4.083  -0.030   0.216
 2743SOL     OW 8247   4.951   1.570   0.793
 2743SOL    HW1 8248   4.972   1.644   0.728
 2743SOL    HW2 8249   5.019   1.570   0.866
 2744SOL     OW 8250   4.183   1.152   0.741
 2744SOL    HW1 8251   4.112   1.125   0.806
 2744SOL    HW2 8252   4.157   1.124   0.648
 2745SOL     OW 8253   3.802   0.556   1.386
 2745SOL    HW1 8254   3.894   0.555   1.345
 2745SOL    HW2 8255   3.796   0.630   1.453
 2746SOL     OW 8256   4.285   0.222   1.147
 2746SOL    HW1 8257   4.323   0.138   1.184
 2746SOL    HW2 8258   4.197   0.241   1.191
 2747SOL     OW 8259   4.212   1.385   0.174
 2747SOL    HW1 8260   4.125   1.370   0.221
 2747SOL    HW2 8261   4.195   1.411   0.079
 2748SOL     OW 8262   4.251   0.256   0.328
 2748SOL    HW1 8263   4.278   0.197   0.253
 2748SOL    HW2 8264   4.251   0.351   0.297
 2749SOL     OW 8265   4.639   0.089   1.402
 2749SOL    HW1 8266   4.664   0.069   1.307
 2749SOL    HW2 8267   4.711   0.145   1.444
 2750SOL     OW 8268   4.429   1.050   0.368
 2750SOL    HW1 8269   4.415   1.057   0.467
 2750SOL    HW2 8270   4.513   0.999   0.350
 2751SOL     OW 8271   4.134   0.813   1.251
 2751SOL    HW1 8272   4.220   0.825   1.301
 2751SOL    HW2 8273   4.092   0.726   1.278
 2752SOL     OW 8274   3.788   1.564   1.331
 2752SOL    HW1 8275   3.742   1.646   1.297
 2752SOL    HW2 8276   3.886   1.583   1.340
 2753SOL     OW 8277   4.091   1.100   0.501
 2753SOL    HW1 8278   4.084   1.183   0.445
 2753SOL    HW2 8279   4.095   1.020   0.441
 2754SOL     OW 8280   4.290   0.537   0.865
 2754SOL    HW1 8281   4.302   0.603   0.791
 2754SOL    HW2 8282   4.336   0.571   0.948
 2755SOL     OW 8283   4.078   1.510   1.329
 2755SOL    HW1 8284   4.057   1.466   1.242
 2755SOL    HW2 8285   4.175   1.536   1.332
 2756SOL     OW 8286   4.126   0.751   1.598
 2756SOL    HW1 8287   4.194   0.806   1.551
 2756SOL    HW2 8288   4.166   0.663   1.625
 2757SOL     OW 8289   4.228   0.050   1.740
 2757SOL    HW1 8290   4.186  -0.007   1.670
 2757SOL    HW2 8291   4.162   0.119   1.772
 2758SOL     OW 8292   4.297   0.870   1.029
 2758SOL    HW1 8293   4.341   0.959   1.020
 2758SOL    HW2 8294   4.234   0.870   1.106
 2759SOL     OW 8295   4.933   0.525   0.275
 2759SOL    HW1 8296   4.946   0.441   0.329
 2759SOL    HW2 8297   4.904   0.599   0.335
 2760SOL     OW 8298   4.031   0.213   1.231
 2760SOL    HW1 8299   4.008   0.250   1.321
 2760SOL    HW2 8300   4.001   0.118   1.225
 2761SOL     OW 8301   3.761   1.310   1.282
 2761SOL    HW1 8302   3.814   1.261   1.350
 2761SOL    HW2 8303   3.783   1.408   1.287
 2762SOL     OW 8304   4.456   0.634   1.064
 2762SOL    HW1 8305   4.515   0.608   0.988
 2762SOL    HW2 8306   4.428   0.730   1.053
 2763SOL     OW 8307   4.031   0.063   0.618
 2763SOL    HW1 8308   4.020   0.157   0.651
 2763SOL    HW2 8309   4.026   0.000   0.695
 2764SOL     OW 8310   4.747   0.766   0.966
 2764SOL    HW1 8311   4.762   0.787   1.062
 2764SOL    HW2 8312   4.717   0.671   0.957
 2765SOL     OW 8313   4.704   1.573   1.700
 2765SOL    HW1 8314   4.684   1.617   1.612
 2765SOL    HW2 8315   4.743   1.482   1.684
 2766SOL     OW 8316   4.074   0.898   1.804
 2766SOL    HW1 8317   4.150   0.942   1.852
 2766SOL    HW2 8318   4.109   0.851   1.722
 2767SOL     OW 8319   4.043   0.810   0.949
 2767SOL    HW1 8320   4.136   0.846   0.954
 2767SOL    HW2 8321   4.037   0.725   1.001
 2768SOL     OW 8322   4.063   0.509   1.006
 2768SOL    HW1 8323   4.011   0.426   0.989
 2768SOL    HW2 8324   4.140   0.514   0.942
 2769SOL     OW 8325   3.732   1.326   0.200
 2769SOL    HW1 8326   3.639   1.347   0.169
 2769SOL    HW2 8327   3.742   1.227   0.213
 2770SOL     OW 8328   3.812   1.801   0.927
 2770SOL    HW1 8329   3.770   1.715   0.900
 2770SOL    HW2 8330   3.906   1.804   0.893
 2771SOL     OW 8331   4.228   1.568   0.910
 2771SOL    HW1 8332   4.294   1.642   0.919
 2771SOL    HW2 8333   4.272   1.489   0.868
 2772SOL     OW 8334   4.726   0.796   1.238
 2772SOL    HW1 8335   4.767   0.764   1.324
 2772SOL    HW2 8336   4.630   0.769   1.235
 2773SOL     OW 8337   3.764   0.544   1.114
 2773SOL    HW1 8338   3.849   0.511   1.073
 2773SOL    HW2 8339   3.777   0.559   1.212
 2774SOL     OW 8340   3.913   0.520   1.722
 2774SOL    HW1 8341   3.972   0.480   1.652
 2774SOL    HW2 8342   3.855   0.591   1.681
 2775SOL     OW 8343   4.539   0.572   0.325
 2775SOL    HW1 8344   4.546   0.483   0.279
 2775SOL    HW2 8345   4.445   0.606   0.317
 2776SOL     OW 8346   3.976   1.564   1.744
 2776SOL    HW1 8347   3.946   1.621   1.820
 2776SOL    HW2 8348   3.969   1.467   1.770
 2777SOL     OW 8349   4.395   0.464   1.269
 2777SOL    HW1 8350   4.361   0.375   1.239
 2777SOL    HW2 8351   4.421   0.518   1.189
 2778SOL     OW 8352   4.654   1.678   1.465
 2778SOL    HW1 8353   4.630   1.660   1.370
 2778SOL    HW2 8354   4.684   1.772   1.475
 2779SOL     OW 8355   4.197   0.500   0.191
 2779SOL    HW1 8356   4.258   0.580   0.195
 2779SOL    HW2 8357   4.102   0.531   0.198
 2780SOL     OW 8358   3.883   1.137   1.466
 2780SOL    HW1 8359   3.905   1.076   1.542
 2780SOL    HW2 8360   3.893   1.088   1.380
 2781SOL     OW 8361   3.807   1.258   1.022
 2781SOL    HW1 8362   3.802   1.257   1.122
 2781SOL    HW2 8363   3.724   1.217   0.984
 2782SOL     OW 8364   4.412   1.662   1.716
 2782SOL    HW1 8365   4.356   1.743   1.725
 2782SOL    HW2 8366   4.464   1.666   1.630
 2783SOL     OW 8367   4.627   0.086   0.133
 2783SOL    HW1 8368   4.678   0.087   0.047
 2783SOL    HW2 8369   4.683   0.044   0.204
 2784SOL     OW 8370   3.854   1.794   1.851
 2784SOL    HW1 8371   3.813   1.720   1.904
 2784SOL    HW2 8372   3.918   1.845   1.909
 2785SOL     OW 8373   4.554   1.273   1.422
 2785SOL    HW1 8374   4.549   1.306   1.517
 2785SOL    HW2 8375   4.468   1.292   1.376
 2786SOL     OW 8376   4.396   1.616   0.154
 2786SOL    HW1 8377   4.405   1.626   0.055
 2786SOL    HW2 8378   4.356   1.527   0.175
 2787SOL     OW 8379   3.987   0.326   0.720
 2787SOL    HW1 8380   3.908   0.377   0.686
 2787SOL    HW2 8381   3.978   0.311   0.818
 2788SOL     OW 8382   4.546   1.002   1.372
 2788SOL    HW1 8383   4.586   1.001   1.280
 2788SOL    HW2 8384   4.556   1.094   1.412
 2789SOL     OW 8385   4.096   1.288   1.490
 2789SOL    HW1 8386   4.083   1.381   1.456
 2789SOL    HW2 8387   4.012   1.236   1.477
 2790SOL     OW 8388   4.314   1.487   0.491
 2790SOL    HW1 8389   4.356   1.429   0.421
 2790SOL    HW2 8390   4.270   1.566   0.447
 2791SOL     OW 8391   3.979   1.348   0.290
 2791SOL    HW1 8392   3.883   1.349   0.263
 2791SOL    HW2 8393   3.991   1.401   0.374
 2792SOL     OW 8394   3.829   1.013   1.726
 2792SOL    HW1 8395   3.752   0.980   1.780
 2792SOL    HW2 8396   3.914   0.983   1.768
 2793SOL     OW 8397   4.396   0.203   1.489
 2793SOL    HW1 8398   4.486   0.187   1.449
 2793SOL    HW2 8399   4.404   0.208   1.588
 2794SOL     OW 8400   4.337   0.842   1.431
 2794SOL    HW1 8401   4.393   0.923   1.414
 2794SOL    HW2 8402   4.396   0.762   1.434
 2795SOL     OW 8403   4.440   0.565   1.708
 2795SOL    HW1 8404   4.459   0.630   1.782
 2795SOL    HW2 8405   4.500   0.485   1.717
 2796SOL     OW 8406   4.114   1.741   1.560
 2796SOL    HW1 8407   4.023   1.782   1.558
 2796SOL    HW2 8408   4.107   1.647   1.592
 2797SOL     OW 8409   4.949   0.325   0.449
 2797SOL    HW1 8410   5.014   0.251   0.438
 2797SOL    HW2 8411   4.969   0.375   0.533
 2798SOL     OW 8412   4.318   0.745   0.652
 2798SOL    HW1 8413   4.368   0.830   0.633
 2798SOL    HW2 8414   4.230   0.747   0.604
 2799SOL     OW 8415   4.583   1.374   0.016
 2799SOL    HW1 8416   4.537   1.389   0.104
 2799SOL    HW2 8417   4.627   1.459  -0.014
 2800SOL     OW 8418   4.385   1.790   0.953
 2800SOL    HW1 8419   4.339   1.878   0.940
 2800SOL    HW2 8420   4.484   1.802   0.946
 2801SOL     OW 8421   4.583   0.956   0.861
 2801SOL    HW1 8422   4.637   0.887   0.909
 2801SOL    HW2 8423   4.551   1.025   0.927
 2802SOL     OW 8424   4.807   0.984   0.087
 2802SOL    HW1 8425   4.784   1.037   0.005
 2802SOL    HW2 8426   4.888   0.928   0.068
 2803SOL     OW 8427   3.945   1.314   1.844
 2803SOL    HW1 8428   3.880   1.241   1.823
 2803SOL    HW2 8429   3.949   1.328   1.942
 2804SOL     OW 8430   3.803   1.240   0.653
 2804SOL    HW1 8431   3.802   1.193   0.741
 2804SOL    HW2 8432   3.885   1.212   0.602
 2805SOL     OW 8433   4.396   1.391   1.624
 2805SOL    HW1 8434   4.318   1.341   1.662
 2805SOL    HW2 8435   4.393   1.486   1.655
 2806SOL     OW 8436   4.152   0.424   0.520
 2806SOL    HW1 8437   4.182   0.352   0.458
 2806SOL    HW2 8438   4.113   0.384   0.603
 2807SOL     OW 8439   4.041   0.547   1.280
 2807SOL    HW1 8440   4.079   0.488   1.352
 2807SOL    HW2 8441   4.081   0.521   1.192
 2808SOL     OW 8442   4.536   1.586   0.687
 2808SOL    HW1 8443   4.568   1.596   0.593
 2808SOL    HW2 8444   4.457   1.524   0.689
 2809SOL     OW 8445   4.725   0.034   1.154
 2809SOL    HW1 8446   4.662  -0.038   1.123
 2809SOL    HW2 8447   4.818  -0.002   1.154
 2810SOL     OW 8448   4.494   1.330   0.301
 2810SOL    HW1 8449   4.448   1.243   0.318
 2810SOL    HW2 8450   4.585   1.327   0.342
 2811SOL     OW 8451   4.342   1.567   1.284
 2811SOL    HW1 8452   4.337   1.649   1.341
 2811SOL    HW2 8453   4.431   1.564   1.239
 2812SOL     OW 8454   3.763   1.077   0.300
 2812SOL    HW1 8455   3.862   1.066   0.291
 2812SOL    HW2 8456   3.723   0.991   0.332
 2813SOL     OW 8457   4.599   1.646   0.337
 2813SOL    HW1 8458   4.522   1.611   0.283
 2813SOL    HW2 8459   4.567   1.717   0.399
 2814SOL     OW 8460   3.954   0.628   1.975
 2814SOL    HW1 8461   3.861   0.626   2.012
 2814SOL    HW2 8462   3.955   0.589   1.883
 2815SOL     OW 8463   3.949   0.275   2.858
 2815SOL    HW1 8464   3.984   0.258   2.950
 2815SOL    HW2 8465   3.861   0.230   2.846
 2816SOL     OW 8466   3.743   0.368   2.509
 2816SOL    HW1 8467   3.661   0.411   2.548
 2816SOL    HW2 8468   3.715   0.295   2.446
 2817SOL     OW 8469   4.293   1.275   3.027
 2817SOL    HW1 8470   4.200   1.268   2.990
 2817SOL    HW2 8471   4.304   1.364   3.071
 2818SOL     OW 8472   4.492   1.144   2.885
 2818SOL    HW1 8473   4.414   1.161   2.945
 2818SOL    HW2 8474   4.526   1.231   2.849
 2819SOL     OW 8475   4.574   0.798   3.685
 2819SOL    HW1 8476   4.570   0.874   3.750
 2819SOL    HW2 8477   4.596   0.834   3.594
 2820SOL     OW 8478   4.409   1.012   2.527
 2820SOL    HW1 8479   4.478   0.996   2.597
 2820SOL    HW2 8480   4.336   1.069   2.565
 2821SOL     OW 8481   4.410   1.161   3.665
 2821SOL    HW1 8482   4.470   1.240   3.679
 2821SOL    HW2 8483   4.324   1.192   3.624
 2822SOL     OW 8484   4.059   1.435   2.923
 2822SOL    HW1 8485   3.981   1.404   2.870
 2822SOL    HW2 8486   4.117   1.493   2.866
 2823SOL     OW 8487   4.162   0.392   3.361
 2823SOL    HW1 8488   4.244   0.336   3.370
 2823SOL    HW2 8489   4.081   0.334   3.365
 2824SOL     OW 8490   3.955   1.713   2.345
 2824SOL    HW1 8491   3.989   1.790   2.399
 2824SOL    HW2 8492   3.999   1.713   2.255
 2825SOL     OW 8493   3.954   1.434   2.400
 2825SOL    HW1 8494   3.928   1.530   2.400
 2825SOL    HW2 8495   3.883   1.380   2.445
 2826SOL     OW 8496   3.964   1.091   2.748
 2826SOL    HW1 8497   3.978   1.007   2.800
 2826SOL    HW2 8498   3.909   1.155   2.803
 2827SOL     OW 8499   4.344   1.786   3.301
 2827SOL    HW1 8500   4.252   1.769   3.336
 2827SOL    HW2 8501   4.372   1.878   3.327
 2828SOL     OW 8502   4.330   0.964   1.985
 2828SOL    HW1 8503   4.337   1.048   1.931
 2828SOL    HW2 8504   4.376   0.977   2.073
 2829SOL     OW 8505   3.846   0.643   2.425
 2829SOL    HW1 8506   3.801   0.555   2.442
 2829SOL    HW2 8507   3.845   0.697   2.509
 2830SOL     OW 8508   3.751   1.596   1.979
 2830SOL    HW1 8509   3.732   1.500   2.000
 2830SOL    HW2 8510   3.718   1.654   2.054
 2831SOL     OW 8511   3.837   0.737   3.459
 2831SOL    HW1 8512   3.925   0.724   3.504
 2831SOL    HW2 8513   3.824   0.834   3.437
 2832SOL     OW 8514   4.337   1.365   2.588
 2832SOL    HW1 8515   4.288   1.278   2.597
 2832SOL    HW2 8516   4.314   1.408   2.501
 2833SOL     OW 8517   4.533   0.004   2.364
 2833SOL    HW1 8518   4.573   0.095   2.355
 2833SOL    HW2 8519   4.433   0.012   2.370
 2834SOL     OW 8520   3.921   0.976   3.126
 2834SOL    HW1 8521   4.010   0.931   3.112
 2834SOL    HW2 8522   3.848   0.911   3.107
 2835SOL     OW 8523   4.041   0.251   3.663
 2835SOL    HW1 8524   4.112   0.322   3.669
 2835SOL    HW2 8525   3.953   0.290   3.691
 2836SOL     OW 8526   4.322   0.729   2.132
 2836SOL    HW1 8527   4.346   0.798   2.064
 2836SOL    HW2 8528   4.244   0.762   2.186
 2837SOL     OW 8529   4.531   0.605   3.327
 2837SOL    HW1 8530   4.484   0.602   3.416
 2837SOL    HW2 8531   4.480   0.550   3.261
 2838SOL     OW 8532   3.800   0.811   2.651
 2838SOL    HW1 8533   3.899   0.799   2.660
 2838SOL    HW2 8534   3.776   0.906   2.672
 2839SOL     OW 8535   3.854   1.821   3.433
 2839SOL    HW1 8536   3.844   1.806   3.532
 2839SOL    HW2 8537   3.768   1.857   3.397
 2840SOL     OW 8538   4.589   0.348   2.057
 2840SOL    HW1 8539   4.648   0.411   2.008
 2840SOL    HW2 8540   4.608   0.254   2.028
 2841SOL     OW 8541   4.274   0.196   2.747
 2841SOL    HW1 8542   4.269   0.191   2.847
 2841SOL    HW2 8543   4.276   0.292   2.718
 2842SOL     OW 8544   4.732   1.456   2.339
 2842SOL    HW1 8545   4.686   1.528   2.287
 2842SOL    HW2 8546   4.728   1.476   2.437
 2843SOL     OW 8547   4.075   1.801   2.715
 2843SOL    HW1 8548   4.125   1.715   2.721
 2843SOL    HW2 8549   4.140   1.878   2.712
 2844SOL     OW 8550   4.045   0.943   2.104
 2844SOL    HW1 8551   4.127   0.982   2.062
 2844SOL    HW2 8552   4.018   0.861   2.055
 2845SOL     OW 8553   4.185   1.266   3.589
 2845SOL    HW1 8554   4.135   1.267   3.503
 2845SOL    HW2 8555   4.122   1.248   3.665
 2846SOL     OW 8556   3.926   0.285   3.360
 2846SOL    HW1 8557   3.846   0.345   3.347
 2846SOL    HW2 8558   3.916   0.236   3.446
 2847SOL     OW 8559   4.188   1.743   2.185
 2847SOL    HW1 8560   4.221   1.782   2.271
 2847SOL    HW2 8561   4.264   1.736   2.120
 2848SOL     OW 8562   3.973   1.785   3.103
 2848SOL    HW1 8563   4.030   1.720   3.153
 2848SOL    HW2 8564   3.957   1.752   3.010
 2849SOL     OW 8565   4.106   0.700   2.342
 2849SOL    HW1 8566   4.151   0.610   2.339
 2849SOL    HW2 8567   4.012   0.689   2.375
 2850SOL     OW 8568   4.338   0.122   1.979
 2850SOL    HW1 8569   4.436   0.100   1.986
 2850SOL    HW2 8570   4.307   0.105   1.886
 2851SOL     OW 8571   4.505   0.264   3.611
 2851SOL    HW1 8572   4.572   0.203   3.654
 2851SOL    HW2 8573   4.432   0.283   3.676
 2852SOL     OW 8574   4.612   1.514   3.057
 2852SOL    HW1 8575   4.589   1.489   2.963
 2852SOL    HW2 8576   4.673   1.445   3.096
 2853SOL     OW 8577   4.527   1.402   2.786
 2853SOL    HW1 8578   4.617   1.416   2.744
 2853SOL    HW2 8579   4.456   1.404   2.715
 2854SOL     OW 8580   4.646   0.503   2.761
 2854SOL    HW1 8581   4.621   0.494   2.665
 2854SOL    HW2 8582   4.694   0.421   2.792
 2855SOL     OW 8583   4.263   0.064   2.374
 2855SOL    HW1 8584   4.182   0.065   2.432
 2855SOL    HW2 8585   4.266   0.147   2.319
 2856SOL     OW 8586   4.021   0.035   2.033
 2856SOL    HW1 8587   4.070   0.119   2.012
 2856SOL    HW2 8588   4.083  -0.030   2.078
 2857SOL     OW 8589   4.951   1.570   2.655
 2857SOL    HW1 8590   4.972   1.644   2.590
 2857SOL    HW2 8591   5.019   1.570   2.728
 2858SOL     OW 8592   4.183   1.152   2.603
 2858SOL    HW1 8593   4.112   1.125   2.668
 2858SOL    HW2 8594   4.157   1.124   2.510
 2859SOL     OW 8595   3.802   0.556   3.248
 2859SOL    HW1 8596   3.894   0.555   3.207
 2859SOL    HW2 8597   3.796   0.630   3.315
 2860SOL     OW 8598   4.285   0.222   3.009
 2860SOL    HW1 8599   4.323   0.138   3.046
 2860SOL    HW2 8600   4.197   0.241   3.053
 2861SOL     OW 8601   4.212   1.385   2.036
 2861SOL    HW1 8602   4.125   1.370   2.083
 2861SOL    HW2 8603   4.195   1.411   1.941
 2862SOL     OW 8604   4.251   0.256   2.190
 2862SOL    HW1 8605   4.278   0.197   2.115
 2862SOL    HW2 8606   4.251   0.351   2.159
 2863SOL     OW 8607   4.639   0.089   3.264
 2863SOL    HW1 8608   4.664   0.069   3.169
 2863SOL    HW2 8609   4.711   0.145   3.306
 2864SOL     OW 8610   4.429   1.050   2.230
 2864SOL    HW1 8611   4.415   1.057   2.329
 2864SOL    HW2 8612   4.513   0.999   2.212
 2865SOL     OW 8613   4.134   0.813   3.113
 2865SOL    HW1 8614   4.220   0.825   3.163
 2865SOL    HW2 8615   4.092   0.726   3.140
 2866SOL     OW 8616   3.788   1.564   3.193
 2866SOL    HW1 8617   3.742   1.646   3.159
 2866SOL    HW2 8618   3.886   1.583   3.202
 2867SOL     OW 8619   4.091   1.100   2.363
 2867SOL    HW1 8620   4.084   1.183   2.307
 2867SOL    HW2 8621   4.095   1.020   2.303
 2868SOL     OW 8622   4.290   0.537   2.727
 2868SOL    HW1 8623   4.302   0.603   2.653
 2868SOL    HW2 8624   4.336   0.571   2.810
 2869SOL     OW 8625   4.078   1.510   3.191
 2869SOL    HW1 8626   4.057   1.466   3.104
 2869SOL    HW2 8627   4.175   1.536   3.194
 2870SOL     OW 8628   4.126   0.751   3.460
 2870SOL    HW1 8629   4.194   0.806   3.413
 2870SOL    HW2 8630   4.166   0.663   3.487
 2871SOL     OW 8631   4.228   0.050   3.602
 2871SOL    HW1 8632   4.186  -0.007   3.532
 2871SOL    HW2 8633   4.162   0.119   3.634
 2872SOL     OW 8634   4.297   0.870   2.891
 2872SOL    HW1 8635   4.341   0.959   2.882
 2872SOL    HW2 8636   4.234   0.870   2.968
 2873SOL     OW 8637   4.933   0.525   2.137
 2873SOL    HW1 8638   4.946   0.441   2.191
 2873SOL    HW2 8639   4.904   0.599   2.197
 2874SOL     OW 8640   4.031   0.213   3.093
 2874SOL    HW1 8641   4.008   0.250   3.183
 2874SOL    HW2 8642   4.001   0.118   3.087
 2875SOL     OW 8643   3.761   1.310   3.144
 2875SOL    HW1 8644   3.814   1.261   3.212
 2875SOL    HW2 8645   3.783   1.408   3.149
 2876SOL     OW 8646   4.456   0.634   2.926
 2876SOL    HW1 8647   4.515   0.608   2.850
 2876SOL    HW2 8648   4.428   0.730   2.915
 2877SOL     OW 8649   4.031   0.063   2.480
 2877SOL    HW1 8650   4.020   0.157   2.513
 2877SOL    HW2 8651   4.026   0.000   2.557
 2878SOL     OW 8652   4.747   0.766   2.828
 2878SOL    HW1 8653   4.762   0.787   2.924
 2878SOL    HW2 8654   4.717   0.671   2.819
 2879SOL     OW 8655   4.704   1.573   3.562
 2879SOL    HW1 8656   4.684   1.617   3.474
 2879SOL    HW2 8657   4.743   1.482   3.546
 2880SOL     OW 8658   4.074   0.898   3.666
 2880SOL    HW1 8659   4.150   0.942   3.714
 2880SOL    HW2 8660   4.109   0.851   3.584
 2881SOL     OW 8661   4.043   0.810   2.811
 2881SOL    HW1 8662   4.136   0.846   2.816
 2881SOL    HW2 8663   4.037   0.725   2.863
 2882SOL     OW 8664   4.063   0.509   2.868
 2882SOL    HW1 8665   4.011   0.426   2.851
 2882SOL    HW2 8666   4.140   0.514   2.804
 2883SOL     OW 8667   3.732   1.326   2.062
 2883SOL    HW1 8668   3.639   1.347   2.031
 2883SOL    HW2 8669   3.742   1.227   2.075
 2884SOL     OW 8670   3.812   1.801   2.789
 2884SOL    HW1 8671   3.770   1.715   2.762
 2884SOL    HW2 8672   3.906   1.804   2.755
 2885SOL     OW 8673   4.228   1.568   2.772
 2885SOL    HW1 8674   4.294   1.642   2.781
 2885SOL    HW2 8675   4.272   1.489   2.730
 2886SOL     OW 8676   4.726   0.796   3.100
 2886SOL    HW1 8677   4.767   0.764   3.186
 2886SOL    HW2 8678   4.630   0.769   3.097
 2887SOL     OW 8679   3.764   0.544   2.976
 2887SOL    HW1 8680   3.849   0.511   2.935
 2887SOL    HW2 8681   3.777   0.559   3.074
 2888SOL     OW 8682   3.913   0.520   3.584
 2888SOL    HW1 8683   3.972   0.480   3.514
 2888SOL    HW2 8684   3.855   0.591   3.543
 2889SOL     OW 8685   4.539   0.572   2.187
 2889SOL    HW1 8686   4.546   0.483   2.141
 2889SOL    HW2 8687   4.445   0.606   2.179
 2890SOL     OW 8688   3.976   1.564   3.606
 2890SOL    HW1 8689   3.946   1.621   3.682
 2890SOL    HW2 8690   3.969   1.467   3.632
 2891SOL     OW 8691   4.395   0.464   3.131
 2891SOL    HW1 8692   4.361   0.375   3.101
 2891SOL    HW2 8693   4.421   0.518   3.051
 2892SOL     OW 8694   4.654   1.678   3.327
 2892SOL    HW1 8695   4.630   1.660   3.232
 2892SOL    HW2 8696   4.684   1.772   3.337
 2893SOL     OW 8697   4.197   0.500   2.053
 2893SOL    HW1 8698   4.258   0.580   2.057
 2893SOL    HW2 8699   4.102   0.531   2.060
 2894SOL     OW 8700   3.883   1.137   3.328
 2894SOL    HW1 8701   3.905   1.076   3.404
 2894SOL    HW2 8702   3.893   1.088   3.242
 2895SOL     OW 8703   3.807   1.258   2.884
 2895SOL    HW1 8704   3.802   1.257   2.984
 2895SOL    HW2 8705   3.724   1.217   2.846
 2896SOL     OW 8706   4.412   1.662   3.578
 2896SOL    HW1 8707   4.356   1.743   3.587
 2896SOL    HW2 8708   4.464   1.666   3.492
 2897SOL     OW 8709   4.627   0.086   1.995
 2897SOL    HW1 8710   4.678   0.087   1.909
 2897SOL    HW2 8711   4.683   0.044   2.066
 2898SOL     OW 8712   3.854   1.794   3.713
 2898SOL    HW1 8713   3.813   1.720   3.766
 2898SOL    HW2 8714   3.918   1.845   3.771
 2899SOL     OW 8715   4.554   1.273   3.284
 2899SOL    HW1 8716   4.549   1.306   3.379
 2899SOL    HW2 8717   4.468   1.292   3.238
 2900SOL     OW 8718   4.396   1.616   2.016
 2900SOL    HW1 8719   4.405   1.626   1.917
 2900SOL    HW2 8720   4.356   1.527   2.037
 2901SOL     OW 8721   3.987   0.326   2.582
 2901SOL    HW1 8722   3.908   0.377   2.548
 2901SOL    HW2 8723   3.978   0.311   2.680
 2902SOL     OW 8724   4.546   1.002   3.234
 2902SOL    HW1 8725   4.586   1.001   3.142
 2902SOL    HW2 8726   4.556   1.094   3.274
 2903SOL     OW 8727   4.096   1.288   3.352
 2903SOL    HW1 8728   4.083   1.381   3.318
 2903SOL    HW2 8729   4.012   1.236   3.339
 2904SOL     OW 8730   4.314   1.487   2.353
 2904SOL    HW1 8731   4.356   1.429   2.283
 2904SOL    HW2 8732   4.270   1.566   2.309
 2905SOL     OW 8733   3.979   1.348   2.152
 2905SOL    HW1 8734   3.883   1.349   2.125
 2905SOL    HW2 8735   3.991   1.401   2.236
 2906SOL     OW 8736   3.829   1.013   3.588
 2906SOL    HW1 8737   3.752   0.980   3.642
 2906SOL    HW2 8738   3.914   0.983   3.630
 2907SOL     OW 8739   4.396   0.203   3.351
 2907SOL    HW1 8740   4.486   0.187   3.311
 2907SOL    HW2 8741   4.404   0.208   3.450
 2908SOL     OW 8742   3.799   0.345   1.895
 2908SOL    HW1 8743   3.707   0.317   1.866
 2908SOL    HW2 8744   3.830   0.422   1.839
 2909SOL     OW 8745   3.796   0.166   2.180
 2909SOL    HW1 8746   3.779   0.249   2.126
 2909SOL    HW2 8747   3.886   0.129   2.158
 2910SOL     OW 8748   4.337   0.842   3.293
 2910SOL    HW1 8749   4.393   0.923   3.276
 2910SOL    HW2 8750   4.396   0.762   3.296
 2911SOL     OW 8751   4.440   0.565   3.570
 2911SOL    HW1 8752   4.459   0.630   3.644
 2911SOL    HW2 8753   4.500   0.485   3.579
 2912SOL     OW 8754   4.114   1.741   3.422
 2912SOL    HW1 8755   4.023   1.782   3.420
 2912SOL    HW2 8756   4.107   1.647   3.454
 2913SOL     OW 8757   4.949   0.325   2.311
 2913SOL    HW1 8758   5.014   0.251   2.300
 2913SOL    HW2 8759   4.969   0.375   2.395
 2914SOL     OW 8760   4.318   0.745   2.514
 2914SOL    HW1 8761   4.368   0.830   2.495
 2914SOL    HW2 8762   4.230   0.747   2.466
 2915SOL     OW 8763   4.583   1.374   1.878
 2915SOL    HW1 8764   4.537   1.389   1.966
 2915SOL    HW2 8765   4.627   1.459   1.848
 2916SOL     OW 8766   4.385   1.790   2.815
 2916SOL    HW1 8767   4.339   1.878   2.802
 2916SOL    HW2 8768   4.484   1.802   2.808
 2917SOL     OW 8769   4.583   0.956   2.723
 2917SOL    HW1 8770   4.637   0.887   2.771
 2917SOL    HW2 8771   4.551   1.025   2.789
 2918SOL     OW 8772   3.945   1.314   3.706
 2918SOL    HW1 8773   3.880   1.241   3.685
 2918SOL    HW2 8774   3.949   1.328   3.804
 2919SOL     OW 8775   3.803   1.240   2.515
 2919SOL    HW1 8776   3.802   1.193   2.603
 2919SOL    HW2 8777   3.885   1.212   2.464
 2920SOL     OW 8778   4.396   1.391   3.486
 2920SOL    HW1 8779   4.318   1.341   3.524
 2920SOL    HW2 8780   4.393   1.486   3.517
 2921SOL     OW 8781   4.152   0.424   2.382
 2921SOL    HW1 8782   4.182   0.352   2.320
 2921SOL    HW2 8783   4.113   0.384   2.465
 2922SOL     OW 8784   4.041   0.547   3.142
 2922SOL    HW1 8785   4.079   0.488   3.214
 2922SOL    HW2 8786   4.081   0.521   3.054
 2923SOL     OW 8787   4.536   1.586   2.549
 2923SOL    HW1 8788   4.568   1.596   2.455
 2923SOL    HW2 8789   4.457   1.524   2.551
 2924SOL     OW 8790   4.725   0.034   3.016
 2924SOL    HW1 8791   4.662  -0.038   2.985
 2924SOL    HW2 8792   4.818  -0.002   3.016
 2925SOL     OW 8793   4.494   1.330   2.163
 2925SOL    HW1 8794   4.448   1.243   2.180
 2925SOL    HW2 8795   4.585   1.327   2.204
 2926SOL     OW 8796   4.342   1.567   3.146
 2926SOL    HW1 8797   4.337   1.649   3.203
 2926SOL    HW2 8798   4.431   1.564   3.101
 2927SOL     OW 8799   3.763   1.077   2.162
 2927SOL    HW1 8800   3.862   1.066   2.153
 2927SOL    HW2 8801   3.723   0.991   2.194
 2928SOL     OW 8802   4.599   1.646   2.199
 2928SOL    HW1 8803   4.522   1.611   2.145
 2928SOL    HW2 8804   4.567   1.717   2.261
 2929SOL     OW 8805   3.954   0.628   3.837
 2929SOL    HW1 8806   3.861   0.626   3.874
 2929SOL    HW2 8807   3.955   0.589   3.745
 2930SOL     OW 8808   3.949   0.275   4.720
 2930SOL    HW1 8809   3.984   0.258   4.812
 2930SOL    HW2 8810   3.861   0.230   4.708
 2931SOL     OW 8811   3.743   0.368   4.371
 2931SOL    HW1 8812   3.661   0.411   4.410
 2931SOL    HW2 8813   3.715   0.295   4.308
 2932SOL     OW 8814   4.492   1.144   4.747
 2932SOL    HW1 8815   4.414   1.161   4.807
 2932SOL    HW2 8816   4.526   1.231   4.711
 2933SOL     OW 8817   4.409   1.012   4.389
 2933SOL    HW1 8818   4.478   0.996   4.459
 2933SOL    HW2 8819   4.336   1.069   4.427
 2934SOL     OW 8820   3.955   1.713   4.207
 2934SOL    HW1 8821   3.989   1.790   4.261
 2934SOL    HW2 8822   3.999   1.713   4.117
 2935SOL     OW 8823   3.954   1.434   4.262
 2935SOL    HW1 8824   3.928   1.530   4.262
 2935SOL    HW2 8825   3.883   1.380   4.307
 2936SOL     OW 8826   3.964   1.091   4.610
 2936SOL    HW1 8827   3.978   1.007   4.662
 2936SOL    HW2 8828   3.909   1.155   4.665
 2937SOL     OW 8829   4.330   0.964   3.847
 2937SOL    HW1 8830   4.337   1.048   3.793
 2937SOL    HW2 8831   4.376   0.977   3.935
 2938SOL     OW 8832   3.846   0.643   4.287
 2938SOL    HW1 8833   3.801   0.555   4.304
 2938SOL    HW2 8834   3.845   0.697   4.371
 2939SOL     OW 8835   3.751   1.596   3.841
 2939SOL    HW1 8836   3.732   1.500   3.862
 2939SOL    HW2 8837   3.718   1.654   3.916
 2940SOL     OW 8838   4.337   1.365   4.450
 2940SOL    HW1 8839   4.288   1.278   4.459
 2940SOL    HW2 8840   4.314   1.408   4.363
 2941SOL     OW 8841   4.533   0.004   4.226
 2941SOL    HW1 8842   4.573   0.095   4.217
 2941SOL    HW2 8843   4.433   0.012   4.232
 2942SOL     OW 8844   4.322   0.729   3.994
 2942SOL    HW1 8845   4.346   0.798   3.926
 2942SOL    HW2 8846   4.244   0.762   4.048
 2943SOL     OW 8847   3.800   0.811   4.513
 2943SOL    HW1 8848   3.899   0.799   4.522
 2943SOL    HW2 8849   3.776   0.906   4.534
 2944SOL     OW 8850   4.589   0.348   3.919
 2944SOL    HW1 8851   4.648   0.411   3.870
 2944SOL    HW2 8852   4.608   0.254   3.890
 2945SOL     OW 8853   4.732   1.456   4.201
 2945SOL    HW1 8854   4.686   1.528   4.149
 2945SOL    HW2 8855   4.728   1.476   4.299
 2946SOL     OW 8856   4.075   1.801   4.577
 2946SOL    HW1 8857   4.125   1.715   4.583
 2946SOL    HW2 8858   4.140   1.878   4.574
 2947SOL     OW 8859   4.045   0.943   3.966
 2947SOL    HW1 8860   4.127   0.982   3.924
 2947SOL    HW2 8861   4.018   0.861   3.917
 2948SOL     OW 8862   4.188   1.743   4.047
 2948SOL    HW1 8863   4.221   1.782   4.133
 2948SOL    HW2 8864   4.264   1.736   3.982
 2949SOL     OW 8865   4.106   0.700   4.204
 2949SOL    HW1 8866   4.151   0.610   4.201
 2949SOL    HW2 8867   4.012   0.689   4.237
 2950SOL     OW 8868   4.338   0.122   3.841
 2950SOL    HW1 8869   4.436   0.100   3.848
 2950SOL    HW2 8870   4.307   0.105   3.748
 2951SOL     OW 8871   4.646   0.503   4.623
 2951SOL    HW1 8872   4.621   0.494   4.527
 2951SOL    HW2 8873   4.694   0.421   4.654
 2952SOL     OW 8874   4.263   0.064   4.236
 2952SOL    HW1 8875   4.182   0.065   4.294
 2952SOL    HW2 8876   4.266   0.147   4.181
 2953SOL     OW 8877   4.021   0.035   3.895
 2953SOL    HW1 8878   4.070   0.119   3.874
 2953SOL    HW2 8879   4.083  -0.030   3.940
 2954SOL     OW 8880   4.951   1.570   4.517
 2954SOL    HW1 8881   4.972   1.644   4.452
 2954SOL    HW2 8882   5.019   1.570   4.590
 2955SOL     OW 8883   4.183   1.152   4.465
 2955SOL    HW1 8884   4.112   1.125   4.530
 2955SOL    HW2 8885   4.157   1.124   4.372
 2956SOL     OW 8886   4.212   1.385   3.898
 2956SOL    HW1 8887   4.125   1.370   3.945
 2956SOL    HW2 8888   4.195   1.411   3.803
 2957SOL     OW 8889   4.251   0.256   4.052
 2957SOL    HW1 8890   4.278   0.197   3.977
 2957SOL    HW2 8891   4.251   0.351   4.021
 2958SOL     OW 8892   4.429   1.050   4.092
 2958SOL    HW1 8893   4.415   1.057   4.191
 2958SOL    HW2 8894   4.513   0.999   4.074
 2959SOL     OW 8895   4.091   1.100   4.225
 2959SOL    HW1 8896   4.084   1.183   4.169
 2959SOL    HW2 8897   4.095   1.020   4.165
 2960SOL     OW 8898   4.290   0.537   4.589
 2960SOL    HW1 8899   4.302   0.603   4.515
 2960SOL    HW2 8900   4.336   0.571   4.672
 2961SOL     OW 8901   4.933   0.525   3.999
 2961SOL    HW1 8902   4.946   0.441   4.053
 2961SOL    HW2 8903   4.904   0.599   4.059
 2962SOL     OW 8904   4.456   0.634   4.788
 2962SOL    HW1 8905   4.515   0.608   4.712
 2962SOL    HW2 8906   4.428   0.730   4.777
 2963SOL     OW 8907   4.031   0.063   4.342
 2963SOL    HW1 8908   4.020   0.157   4.375
 2963SOL    HW2 8909   4.026   0.000   4.419
 2964SOL     OW 8910   4.747   0.766   4.690
 2964SOL    HW1 8911   4.762   0.787   4.786
 2964SOL    HW2 8912   4.717   0.671   4.681
 2965SOL     OW 8913   4.043   0.810   4.673
 2965SOL    HW1 8914   4.136   0.846   4.678
 2965SOL    HW2 8915   4.037   0.725   4.725
 2966SOL     OW 8916   3.732   1.326   3.924
 2966SOL    HW1 8917   3.639   1.347   3.893
 2966SOL    HW2 8918   3.742   1.227   3.937
 2967SOL     OW 8919   3.812   1.801   4.651
 2967SOL    HW1 8920   3.770   1.715   4.624
 2967SOL    HW2 8921   3.906   1.804   4.617
 2968SOL     OW 8922   4.228   1.568   4.634
 2968SOL    HW1 8923   4.294   1.642   4.643
 2968SOL    HW2 8924   4.272   1.489   4.592
 2969SOL     OW 8925   4.726   0.796   4.962
 2969SOL    HW1 8926   4.767   0.764   5.048
 2969SOL    HW2 8927   4.630   0.769   4.959
 2970SOL     OW 8928   4.539   0.572   4.049
 2970SOL    HW1 8929   4.546   0.483   4.003
 2970SOL    HW2 8930   4.445   0.606   4.041
 2971SOL     OW 8931   4.197   0.500   3.915
 2971SOL    HW1 8932   4.258   0.580   3.919
 2971SOL    HW2 8933   4.102   0.531   3.922
 2972SOL     OW 8934   4.976   1.731   4.852
 2972SOL    HW1 8935   5.060   1.736   4.798
 2972SOL    HW2 8936   4.953   1.635   4.870
 2973SOL     OW 8937   4.627   0.086   3.857
 2973SOL    HW1 8938   4.678   0.087   3.771
 2973SOL    HW2 8939   4.683   0.044   3.928
 2974SOL     OW 8940   4.396   1.616   3.878
 2974SOL    HW1 8941   4.405   1.626   3.779
 2974SOL    HW2 8942   4.356   1.527   3.899
 2975SOL     OW 8943   3.987   0.326   4.444
 2975SOL    HW1 8944   3.908   0.377   4.410
 2975SOL    HW2 8945   3.978   0.311   4.542
 2976SOL     OW 8946   4.314   1.487   4.215
 2976SOL    HW1 8947   4.356   1.429   4.145
 2976SOL    HW2 8948   4.270   1.566   4.171
 2977SOL     OW 8949   3.979   1.348   4.014
 2977SOL    HW1 8950   3.883   1.349   3.987
 2977SOL    HW2 8951   3.991   1.401   4.098
 2978SOL     OW 8952   3.799   0.345   3.757
 2978SOL    HW1 8953   3.707   0.317   3.728
 2978SOL    HW2 8954   3.830   0.422   3.701
 2979SOL     OW 8955   3.796   0.166   4.042
 2979SOL    HW1 8956   3.779   0.249   3.988
 2979SOL    HW2 8957   3.886   0.129   4.020
 2980SOL     OW 8958   4.949   0.325   4.173
 2980SOL    HW1 8959   5.014   0.251   4.162
 2980SOL    HW2 8960   4.969   0.375   4.257
 2981SOL     OW 8961   4.318   0.745   4.376
 2981SOL    HW1 8962   4.368   0.830   4.357
 2981SOL    HW2 8963   4.230   0.747   4.328
 2982SOL     OW 8964   4.583   1.374   3.740
 2982SOL    HW1 8965   4.537   1.389   3.828
 2982SOL    HW2 8966   4.627   1.459   3.710
 2983SOL     OW 8967   4.385   1.790   4.677
 2983SOL    HW1 8968   4.339   1.878   4.664
 2983SOL    HW2 8969   4.484   1.802   4.670
 2984SOL     OW 8970   4.583   0.956   4.585
 2984SOL    HW1 8971   4.637   0.887   4.633
 2984SOL    HW2 8972   4.551   1.025   4.651
 2985SOL     OW 8973   3.803   1.240   4.377
 2985SOL    HW1 8974   3.802   1.193   4.465
 2985SOL    HW2 8975   3.885   1.212   4.326
 2986SOL     OW 8976   4.152   0.424   4.244
 2986SOL    HW1 8977   4.182   0.352   4.182
 2986SOL    HW2 8978   4.113   0.384   4.327
 2987SOL     OW 8979   4.536   1.586   4.411
 2987SOL    HW1 8980   4.568   1.596   4.317
 2987SOL    HW2 8981   4.457   1.524   4.413
 2988SOL     OW 8982   4.494   1.330   4.025
 2988SOL    HW1 8983   4.448   1.243   4.042
 2988SOL    HW2 8984   4.585   1.327   4.066
 2989SOL     OW 8985   3.763   1.077   4.024
 2989SOL    HW1 8986   3.862   1.066   4.015
 2989SOL    HW2 8987   3.723   0.991   4.056
 2990SOL     OW 8988   4.599   1.646   4.061
 2990SOL    HW1 8989   4.522   1.611   4.007
 2990SOL    HW2 8990   4.567   1.717   4.123
 2991SOL     OW 8991   3.954   2.490   0.113
 2991SOL    HW1 8992   3.861   2.488   0.150
 2991SOL    HW2 8993   3.955   2.451   0.021
 2992SOL     OW 8994   3.949   2.137   0.996
 2992SOL    HW1 8995   3.984   2.120   1.088
 2992SOL    HW2 8996   3.861   2.092   0.984
 2993SOL     OW 8997   3.743   2.230   0.647
 2993SOL    HW1 8998   3.661   2.273   0.686
 2993SOL    HW2 8999   3.715   2.157   0.584
 2994SOL     OW 9000   4.293   3.137   1.165
 2994SOL    HW1 9001   4.200   3.130   1.128
 2994SOL    HW2 9002   4.304   3.226   1.209
 2995SOL     OW 9003   4.492   3.006   1.023
 2995SOL    HW1 9004   4.414   3.023   1.083
 2995SOL    HW2 9005   4.526   3.093   0.987
 2996SOL     OW 9006   4.574   2.660   1.823
 2996SOL    HW1 9007   4.570   2.736   1.888
 2996SOL    HW2 9008   4.596   2.696   1.732
 2997SOL     OW 9009   4.409   2.874   0.665
 2997SOL    HW1 9010   4.478   2.858   0.735
 2997SOL    HW2 9011   4.336   2.931   0.703
 2998SOL     OW 9012   4.410   3.023   1.803
 2998SOL    HW1 9013   4.470   3.102   1.817
 2998SOL    HW2 9014   4.324   3.054   1.762
 2999SOL     OW 9015   4.059   3.297   1.061
 2999SOL    HW1 9016   3.981   3.266   1.008
 2999SOL    HW2 9017   4.117   3.355   1.004
 3000SOL     OW 9018   4.162   2.254   1.499
 3000SOL    HW1 9019   4.244   2.198   1.508
 3000SOL    HW2 9020   4.081   2.196   1.503
 3001SOL     OW 9021   3.955   3.575   0.483
 3001SOL    HW1 9022   3.989   3.652   0.537
 3001SOL    HW2 9023   3.999   3.575   0.393
 3002SOL     OW 9024   3.954   3.296   0.538
 3002SOL    HW1 9025   3.928   3.392   0.538
 3002SOL    HW2 9026   3.883   3.242   0.583
 3003SOL     OW 9027   3.964   2.953   0.886
 3003SOL    HW1 9028   3.978   2.869   0.938
 3003SOL    HW2 9029   3.909   3.017   0.941
 3004SOL     OW 9030   4.344   3.648   1.439
 3004SOL    HW1 9031   4.252   3.631   1.474
 3004SOL    HW2 9032   4.372   3.740   1.465
 3005SOL     OW 9033   4.330   2.826   0.123
 3005SOL    HW1 9034   4.337   2.910   0.069
 3005SOL    HW2 9035   4.376   2.839   0.211
 3006SOL     OW 9036   3.846   2.505   0.563
 3006SOL    HW1 9037   3.801   2.417   0.580
 3006SOL    HW2 9038   3.845   2.559   0.647
 3007SOL     OW 9039   3.837   2.599   1.597
 3007SOL    HW1 9040   3.925   2.586   1.642
 3007SOL    HW2 9041   3.824   2.696   1.575
 3008SOL     OW 9042   4.337   3.227   0.726
 3008SOL    HW1 9043   4.288   3.140   0.735
 3008SOL    HW2 9044   4.314   3.270   0.639
 3009SOL     OW 9045   4.533   1.866   0.502
 3009SOL    HW1 9046   4.573   1.957   0.493
 3009SOL    HW2 9047   4.433   1.874   0.508
 3010SOL     OW 9048   3.921   2.838   1.264
 3010SOL    HW1 9049   4.010   2.793   1.250
 3010SOL    HW2 9050   3.848   2.773   1.245
 3011SOL     OW 9051   4.041   2.113   1.801
 3011SOL    HW1 9052   4.112   2.184   1.807
 3011SOL    HW2 9053   3.953   2.152   1.829
 3012SOL     OW 9054   4.322   2.591   0.270
 3012SOL    HW1 9055   4.346   2.660   0.202
 3012SOL    HW2 9056   4.244   2.624   0.324
 3013SOL     OW 9057   4.531   2.467   1.465
 3013SOL    HW1 9058   4.484   2.464   1.554
 3013SOL    HW2 9059   4.480   2.412   1.399
 3014SOL     OW 9060   4.715   2.272   1.242
 3014SOL    HW1 9061   4.638   2.306   1.296
 3014SOL    HW2 9062   4.681   2.221   1.163
 3015SOL     OW 9063   3.800   2.673   0.789
 3015SOL    HW1 9064   3.899   2.661   0.798
 3015SOL    HW2 9065   3.776   2.768   0.810
 3016SOL     OW 9066   3.854   3.683   1.571
 3016SOL    HW1 9067   3.844   3.668   1.670
 3016SOL    HW2 9068   3.768   3.719   1.535
 3017SOL     OW 9069   4.589   2.210   0.195
 3017SOL    HW1 9070   4.648   2.273   0.146
 3017SOL    HW2 9071   4.608   2.116   0.166
 3018SOL     OW 9072   4.274   2.058   0.885
 3018SOL    HW1 9073   4.269   2.053   0.985
 3018SOL    HW2 9074   4.276   2.154   0.856
 3019SOL     OW 9075   4.732   3.318   0.477
 3019SOL    HW1 9076   4.686   3.390   0.425
 3019SOL    HW2 9077   4.728   3.338   0.575
 3020SOL     OW 9078   4.075   3.663   0.853
 3020SOL    HW1 9079   4.125   3.577   0.859
 3020SOL    HW2 9080   4.140   3.740   0.850
 3021SOL     OW 9081   4.045   2.805   0.242
 3021SOL    HW1 9082   4.127   2.844   0.200
 3021SOL    HW2 9083   4.018   2.723   0.193
 3022SOL     OW 9084   4.185   3.128   1.727
 3022SOL    HW1 9085   4.135   3.129   1.641
 3022SOL    HW2 9086   4.122   3.110   1.803
 3023SOL     OW 9087   3.926   2.147   1.498
 3023SOL    HW1 9088   3.846   2.207   1.485
 3023SOL    HW2 9089   3.916   2.098   1.584
 3024SOL     OW 9090   4.188   3.605   0.323
 3024SOL    HW1 9091   4.221   3.644   0.409
 3024SOL    HW2 9092   4.264   3.598   0.258
 3025SOL     OW 9093   3.973   3.647   1.241
 3025SOL    HW1 9094   4.030   3.582   1.291
 3025SOL    HW2 9095   3.957   3.614   1.148
 3026SOL     OW 9096   4.106   2.562   0.480
 3026SOL    HW1 9097   4.151   2.472   0.477
 3026SOL    HW2 9098   4.012   2.551   0.513
 3027SOL     OW 9099   4.338   1.984   0.117
 3027SOL    HW1 9100   4.436   1.962   0.124
 3027SOL    HW2 9101   4.307   1.967   0.024
 3028SOL     OW 9102   4.505   2.126   1.749
 3028SOL    HW1 9103   4.572   2.065   1.792
 3028SOL    HW2 9104   4.432   2.145   1.814
 3029SOL     OW 9105   4.612   3.376   1.195
 3029SOL    HW1 9106   4.589   3.351   1.101
 3029SOL    HW2 9107   4.673   3.307   1.234
 3030SOL     OW 9108   4.527   3.264   0.924
 3030SOL    HW1 9109   4.617   3.278   0.882
 3030SOL    HW2 9110   4.456   3.266   0.853
 3031SOL     OW 9111   4.646   2.365   0.899
 3031SOL    HW1 9112   4.621   2.356   0.803
 3031SOL    HW2 9113   4.694   2.283   0.930
 3032SOL     OW 9114   4.263   1.926   0.512
 3032SOL    HW1 9115   4.182   1.927   0.570
 3032SOL    HW2 9116   4.266   2.009   0.457
 3033SOL     OW 9117   4.021   1.897   0.171
 3033SOL    HW1 9118   4.070   1.981   0.150
 3033SOL    HW2 9119   4.083   1.832   0.216
 3034SOL     OW 9120   4.951   3.432   0.793
 3034SOL    HW1 9121   4.972   3.506   0.728
 3034SOL    HW2 9122   5.019   3.432   0.866
 3035SOL     OW 9123   4.183   3.014   0.741
 3035SOL    HW1 9124   4.112   2.987   0.806
 3035SOL    HW2 9125   4.157   2.986   0.648
 3036SOL     OW 9126   3.802   2.418   1.386
 3036SOL    HW1 9127   3.894   2.417   1.345
 3036SOL    HW2 9128   3.796   2.492   1.453
 3037SOL     OW 9129   4.285   2.084   1.147
 3037SOL    HW1 9130   4.323   2.000   1.184
 3037SOL    HW2 9131   4.197   2.103   1.191
 3038SOL     OW 9132   4.741   1.901   0.753
 3038SOL    HW1 9133   4.669   1.906   0.684
 3038SOL    HW2 9134   4.717   1.832   0.822
 3039SOL     OW 9135   4.212   3.247   0.174
 3039SOL    HW1 9136   4.125   3.232   0.221
 3039SOL    HW2 9137   4.195   3.273   0.079
 3040SOL     OW 9138   4.251   2.118   0.328
 3040SOL    HW1 9139   4.278   2.059   0.253
 3040SOL    HW2 9140   4.251   2.213   0.297
 3041SOL     OW 9141   4.639   1.951   1.402
 3041SOL    HW1 9142   4.664   1.931   1.307
 3041SOL    HW2 9143   4.711   2.007   1.444
 3042SOL     OW 9144   4.429   2.912   0.368
 3042SOL    HW1 9145   4.415   2.919   0.467
 3042SOL    HW2 9146   4.513   2.861   0.350
 3043SOL     OW 9147   4.134   2.675   1.251
 3043SOL    HW1 9148   4.220   2.687   1.301
 3043SOL    HW2 9149   4.092   2.588   1.278
 3044SOL     OW 9150   3.788   3.426   1.331
 3044SOL    HW1 9151   3.742   3.508   1.297
 3044SOL    HW2 9152   3.886   3.445   1.340
 3045SOL     OW 9153   4.091   2.962   0.501
 3045SOL    HW1 9154   4.084   3.045   0.445
 3045SOL    HW2 9155   4.095   2.882   0.441
 3046SOL     OW 9156   4.290   2.399   0.865
 3046SOL    HW1 9157   4.302   2.465   0.791
 3046SOL    HW2 9158   4.336   2.433   0.948
 3047SOL     OW 9159   4.078   3.372   1.329
 3047SOL    HW1 9160   4.057   3.328   1.242
 3047SOL    HW2 9161   4.175   3.398   1.332
 3048SOL     OW 9162   4.126   2.613   1.598
 3048SOL    HW1 9163   4.194   2.668   1.551
 3048SOL    HW2 9164   4.166   2.525   1.625
 3049SOL     OW 9165   4.228   1.912   1.740
 3049SOL    HW1 9166   4.186   1.855   1.670
 3049SOL    HW2 9167   4.162   1.981   1.772
 3050SOL     OW 9168   4.297   2.732   1.029
 3050SOL    HW1 9169   4.341   2.821   1.020
 3050SOL    HW2 9170   4.234   2.732   1.106
 3051SOL     OW 9171   4.933   2.387   0.275
 3051SOL    HW1 9172   4.946   2.303   0.329
 3051SOL    HW2 9173   4.904   2.461   0.335
 3052SOL     OW 9174   4.031   2.075   1.231
 3052SOL    HW1 9175   4.008   2.112   1.321
 3052SOL    HW2 9176   4.001   1.980   1.225
 3053SOL     OW 9177   3.761   3.172   1.282
 3053SOL    HW1 9178   3.814   3.123   1.350
 3053SOL    HW2 9179   3.783   3.270   1.287
 3054SOL     OW 9180   4.456   2.496   1.064
 3054SOL    HW1 9181   4.515   2.470   0.988
 3054SOL    HW2 9182   4.428   2.592   1.053
 3055SOL     OW 9183   4.031   1.925   0.618
 3055SOL    HW1 9184   4.020   2.019   0.651
 3055SOL    HW2 9185   4.026   1.862   0.695
 3056SOL     OW 9186   4.747   2.628   0.966
 3056SOL    HW1 9187   4.762   2.649   1.062
 3056SOL    HW2 9188   4.717   2.533   0.957
 3057SOL     OW 9189   4.704   3.435   1.700
 3057SOL    HW1 9190   4.684   3.479   1.612
 3057SOL    HW2 9191   4.743   3.344   1.684
 3058SOL     OW 9192   4.074   2.760   1.804
 3058SOL    HW1 9193   4.150   2.804   1.852
 3058SOL    HW2 9194   4.109   2.713   1.722
 3059SOL     OW 9195   4.043   2.672   0.949
 3059SOL    HW1 9196   4.136   2.708   0.954
 3059SOL    HW2 9197   4.037   2.587   1.001
 3060SOL     OW 9198   4.063   2.371   1.006
 3060SOL    HW1 9199   4.011   2.288   0.989
 3060SOL    HW2 9200   4.140   2.376   0.942
 3061SOL     OW 9201   3.732   3.188   0.200
 3061SOL    HW1 9202   3.639   3.209   0.169
 3061SOL    HW2 9203   3.742   3.089   0.213
 3062SOL     OW 9204   3.812   3.663   0.927
 3062SOL    HW1 9205   3.770   3.577   0.900
 3062SOL    HW2 9206   3.906   3.666   0.893
 3063SOL     OW 9207   4.228   3.430   0.910
 3063SOL    HW1 9208   4.294   3.504   0.919
 3063SOL    HW2 9209   4.272   3.351   0.868
 3064SOL     OW 9210   4.726   2.658   1.238
 3064SOL    HW1 9211   4.767   2.626   1.324
 3064SOL    HW2 9212   4.630   2.631   1.235
 3065SOL     OW 9213   3.764   2.406   1.114
 3065SOL    HW1 9214   3.849   2.373   1.073
 3065SOL    HW2 9215   3.777   2.421   1.212
 3066SOL     OW 9216   3.913   2.382   1.722
 3066SOL    HW1 9217   3.972   2.342   1.652
 3066SOL    HW2 9218   3.855   2.453   1.681
 3067SOL     OW 9219   4.539   2.434   0.325
 3067SOL    HW1 9220   4.546   2.345   0.279
 3067SOL    HW2 9221   4.445   2.468   0.317
 3068SOL     OW 9222   3.976   3.426   1.744
 3068SOL    HW1 9223   3.946   3.483   1.820
 3068SOL    HW2 9224   3.969   3.329   1.770
 3069SOL     OW 9225   4.395   2.326   1.269
 3069SOL    HW1 9226   4.361   2.237   1.239
 3069SOL    HW2 9227   4.421   2.380   1.189
 3070SOL     OW 9228   4.654   3.540   1.465
 3070SOL    HW1 9229   4.630   3.522   1.370
 3070SOL    HW2 9230   4.684   3.634   1.475
 3071SOL     OW 9231   4.197   2.362   0.191
 3071SOL    HW1 9232   4.258   2.442   0.195
 3071SOL    HW2 9233   4.102   2.393   0.198
 3072SOL     OW 9234   3.883   2.999   1.466
 3072SOL    HW1 9235   3.905   2.938   1.542
 3072SOL    HW2 9236   3.893   2.950   1.380
 3073SOL     OW 9237   3.807   3.120   1.022
 3073SOL    HW1 9238   3.802   3.119   1.122
 3073SOL    HW2 9239   3.724   3.079   0.984
 3074SOL     OW 9240   4.412   3.524   1.716
 3074SOL    HW1 9241   4.356   3.605   1.725
 3074SOL    HW2 9242   4.464   3.528   1.630
 3075SOL     OW 9243   4.627   1.948   0.133
 3075SOL    HW1 9244   4.678   1.949   0.047
 3075SOL    HW2 9245   4.683   1.906   0.204
 3076SOL     OW 9246   3.854   3.656   1.851
 3076SOL    HW1 9247   3.813   3.582   1.904
 3076SOL    HW2 9248   3.918   3.707   1.909
 3077SOL     OW 9249   4.554   3.135   1.422
 3077SOL    HW1 9250   4.549   3.168   1.517
 3077SOL    HW2 9251   4.468   3.154   1.376
 3078SOL     OW 9252   4.396   3.478   0.154
 3078SOL    HW1 9253   4.405   3.488   0.055
 3078SOL    HW2 9254   4.356   3.389   0.175
 3079SOL     OW 9255   3.987   2.188   0.720
 3079SOL    HW1 9256   3.908   2.239   0.686
 3079SOL    HW2 9257   3.978   2.173   0.818
 3080SOL     OW 9258   4.546   2.864   1.372
 3080SOL    HW1 9259   4.586   2.863   1.280
 3080SOL    HW2 9260   4.556   2.956   1.412
 3081SOL     OW 9261   4.096   3.150   1.490
 3081SOL    HW1 9262   4.083   3.243   1.456
 3081SOL    HW2 9263   4.012   3.098   1.477
 3082SOL     OW 9264   4.314   3.349   0.491
 3082SOL    HW1 9265   4.356   3.291   0.421
 3082SOL    HW2 9266   4.270   3.428   0.447
 3083SOL     OW 9267   3.979   3.210   0.290
 3083SOL    HW1 9268   3.883   3.211   0.263
 3083SOL    HW2 9269   3.991   3.263   0.374
 3084SOL     OW 9270   3.829   2.875   1.726
 3084SOL    HW1 9271   3.752   2.842   1.780
 3084SOL    HW2 9272   3.914   2.845   1.768
 3085SOL     OW 9273   4.396   2.065   1.489
 3085SOL    HW1 9274   4.486   2.049   1.449
 3085SOL    HW2 9275   4.404   2.070   1.588
 3086SOL     OW 9276   4.337   2.704   1.431
 3086SOL    HW1 9277   4.393   2.785   1.414
 3086SOL    HW2 9278   4.396   2.624   1.434
 3087SOL     OW 9279   4.440   2.427   1.708
 3087SOL    HW1 9280   4.459   2.492   1.782
 3087SOL    HW2 9281   4.500   2.347   1.717
 3088SOL     OW 9282   4.114   3.603   1.560
 3088SOL    HW1 9283   4.023   3.644   1.558
 3088SOL    HW2 9284   4.107   3.509   1.592
 3089SOL     OW 9285   4.949   2.187   0.449
 3089SOL    HW1 9286   5.014   2.113   0.438
 3089SOL    HW2 9287   4.969   2.237   0.533
 3090SOL     OW 9288   4.318   2.607   0.652
 3090SOL    HW1 9289   4.368   2.692   0.633
 3090SOL    HW2 9290   4.230   2.609   0.604
 3091SOL     OW 9291   4.583   3.236   0.016
 3091SOL    HW1 9292   4.537   3.251   0.104
 3091SOL    HW2 9293   4.627   3.321  -0.014
 3092SOL     OW 9294   4.385   3.652   0.953
 3092SOL    HW1 9295   4.339   3.740   0.940
 3092SOL    HW2 9296   4.484   3.664   0.946
 3093SOL     OW 9297   4.583   2.818   0.861
 3093SOL    HW1 9298   4.637   2.749   0.909
 3093SOL    HW2 9299   4.551   2.887   0.927
 3094SOL     OW 9300   4.807   2.846   0.087
 3094SOL    HW1 9301   4.784   2.899   0.005
 3094SOL    HW2 9302   4.888   2.790   0.068
 3095SOL     OW 9303   3.945   3.176   1.844
 3095SOL    HW1 9304   3.880   3.103   1.823
 3095SOL    HW2 9305   3.949   3.190   1.942
 3096SOL     OW 9306   3.803   3.102   0.653
 3096SOL    HW1 9307   3.802   3.055   0.741
 3096SOL    HW2 9308   3.885   3.074   0.602
 3097SOL     OW 9309   4.396   3.253   1.624
 3097SOL    HW1 9310   4.318   3.203   1.662
 3097SOL    HW2 9311   4.393   3.348   1.655
 3098SOL     OW 9312   4.152   2.286   0.520
 3098SOL    HW1 9313   4.182   2.214   0.458
 3098SOL    HW2 9314   4.113   2.246   0.603
 3099SOL     OW 9315   4.041   2.409   1.280
 3099SOL    HW1 9316   4.079   2.350   1.352
 3099SOL    HW2 9317   4.081   2.383   1.192
 3100SOL     OW 9318   4.536   3.448   0.687
 3100SOL    HW1 9319   4.568   3.458   0.593
 3100SOL    HW2 9320   4.457   3.386   0.689
 3101SOL     OW 9321   4.725   1.896   1.154
 3101SOL    HW1 9322   4.662   1.824   1.123
 3101SOL    HW2 9323   4.818   1.860   1.154
 3102SOL     OW 9324   4.494   3.192   0.301
 3102SOL    HW1 9325   4.448   3.105   0.318
 3102SOL    HW2 9326   4.585   3.189   0.342
 3103SOL     OW 9327   4.342   3.429   1.284
 3103SOL    HW1 9328   4.337   3.511   1.341
 3103SOL    HW2 9329   4.431   3.426   1.239
 3104SOL     OW 9330   3.763   2.939   0.300
 3104SOL    HW1 9331   3.862   2.928   0.291
 3104SOL    HW2 9332   3.723   2.853   0.332
 3105SOL     OW 9333   4.599   3.508   0.337
 3105SOL    HW1 9334   4.522   3.473   0.283
 3105SOL    HW2 9335   4.567   3.579   0.399
 3106SOL     OW 9336   3.954   2.490   1.975
 3106SOL    HW1 9337   3.861   2.488   2.012
 3106SOL    HW2 9338   3.955   2.451   1.883
 3107SOL     OW 9339   3.949   2.137   2.858
 3107SOL    HW1 9340   3.984   2.120   2.950
 3107SOL    HW2 9341   3.861   2.092   2.846
 3108SOL     OW 9342   3.743   2.230   2.509
 3108SOL    HW1 9343   3.661   2.273   2.548
 3108SOL    HW2 9344   3.715   2.157   2.446
 3109SOL     OW 9345   4.293   3.137   3.027
 3109SOL    HW1 9346   4.200   3.130   2.990
 3109SOL    HW2 9347   4.304   3.226   3.071
 3110SOL     OW 9348   4.492   3.006   2.885
 3110SOL    HW1 9349   4.414   3.023   2.945
 3110SOL    HW2 9350   4.526   3.093   2.849
 3111SOL     OW 9351   4.574   2.660   3.685
 3111SOL    HW1 9352   4.570   2.736   3.750
 3111SOL    HW2 9353   4.596   2.696   3.594
 3112SOL     OW 9354   4.409   2.874   2.527
 3112SOL    HW1 9355   4.478   2.858   2.597
 3112SOL    HW2 9356   4.336   2.931   2.565
 3113SOL     OW 9357   4.410   3.023   3.665
 3113SOL    HW1 9358   4.470   3.102   3.679
 3113SOL    HW2 9359   4.324   3.054   3.624
 3114SOL     OW 9360   4.059   3.297   2.923
 3114SOL    HW1 9361   3.981   3.266   2.870
 3114SOL    HW2 9362   4.117   3.355   2.866
 3115SOL     OW 9363   4.162   2.254   3.361
 3115SOL    HW1 9364   4.244   2.198   3.370
 3115SOL    HW2 9365   4.081   2.196   3.365
 3116SOL     OW 9366   3.955   3.575   2.345
 3116SOL    HW1 9367   3.989   3.652   2.399
 3116SOL    HW2 9368   3.999   3.575   2.255
 3117SOL     OW 9369   3.954   3.296   2.400
 3117SOL    HW1 9370   3.928   3.392   2.400
 3117SOL    HW2 9371   3.883   3.242   2.445
 3118SOL     OW 9372   3.964   2.953   2.748
 3118SOL    HW1 9373   3.978   2.869   2.800
 3118SOL    HW2 9374   3.909   3.017   2.803
 3119SOL     OW 9375   4.344   3.648   3.301
 3119SOL    HW1 9376   4.252   3.631   3.336
 3119SOL    HW2 9377   4.372   3.740   3.327
 3120SOL     OW 9378   4.330   2.826   1.985
 3120SOL    HW1 9379   4.337   2.910   1.931
 3120SOL    HW2 9380   4.376   2.839   2.073
 3121SOL     OW 9381   3.846   2.505   2.425
 3121SOL    HW1 9382   3.801   2.417   2.442
 3121SOL    HW2 9383   3.845   2.559   2.509
 3122SOL     OW 9384   3.751   3.458   1.979
 3122SOL    HW1 9385   3.732   3.362   2.000
 3122SOL    HW2 9386   3.718   3.516   2.054
 3123SOL     OW 9387   3.837   2.599   3.459
 3123SOL    HW1 9388   3.925   2.586   3.504
 3123SOL    HW2 9389   3.824   2.696   3.437
 3124SOL     OW 9390   4.337   3.227   2.588
 3124SOL    HW1 9391   4.288   3.140   2.597
 3124SOL    HW2 9392   4.314   3.270   2.501
 3125SOL     OW 9393   4.533   1.866   2.364
 3125SOL    HW1 9394   4.573   1.957   2.355
 3125SOL    HW2 9395   4.433   1.874   2.370
 3126SOL     OW 9396   3.921   2.838   3.126
 3126SOL    HW1 9397   4.010   2.793   3.112
 3126SOL    HW2 9398   3.848   2.773   3.107
 3127SOL     OW 9399   4.041   2.113   3.663
 3127SOL    HW1 9400   4.112   2.184   3.669
 3127SOL    HW2 9401   3.953   2.152   3.691
 3128SOL     OW 9402   4.322   2.591   2.132
 3128SOL    HW1 9403   4.346   2.660   2.064
 3128SOL    HW2 9404   4.244   2.624   2.186
 3129SOL     OW 9405   4.531   2.467   3.327
 3129SOL    HW1 9406   4.484   2.464   3.416
 3129SOL    HW2 9407   4.480   2.412   3.261
 3130SOL     OW 9408   4.715   2.272   3.104
 3130SOL    HW1 9409   4.638   2.306   3.158
 3130SOL    HW2 9410   4.681   2.221   3.025
 3131SOL     OW 9411   3.800   2.673   2.651
 3131SOL    HW1 9412   3.899   2.661   2.660
 3131SOL    HW2 9413   3.776   2.768   2.672
 3132SOL     OW 9414   3.854   3.683   3.433
 3132SOL    HW1 9415   3.844   3.668   3.532
 3132SOL    HW2 9416   3.768   3.719   3.397
 3133SOL     OW 9417   4.589   2.210   2.057
 3133SOL    HW1 9418   4.648   2.273   2.008
 3133SOL    HW2 9419   4.608   2.116   2.028
 3134SOL     OW 9420   4.274   2.058   2.747
 3134SOL    HW1 9421   4.269   2.053   2.847
 3134SOL    HW2 9422   4.276   2.154   2.718
 3135SOL     OW 9423   4.732   3.318   2.339
 3135SOL    HW1 9424   4.686   3.390   2.287
 3135SOL    HW2 9425   4.728   3.338   2.437
 3136SOL     OW 9426   4.075   3.663   2.715
 3136SOL    HW1 9427   4.125   3.577   2.721
 3136SOL    HW2 9428   4.140   3.740   2.712
 3137SOL     OW 9429   4.045   2.805   2.104
 3137SOL    HW1 9430   4.127   2.844   2.062
 3137SOL    HW2 9431   4.018   2.723   2.055
 3138SOL     OW 9432   4.185   3.128   3.589
 3138SOL    HW1 9433   4.135   3.129   3.503
 3138SOL    HW2 9434   4.122   3.110   3.665
 3139SOL     OW 9435   3.926   2.147   3.360
 3139SOL    HW1 9436   3.846   2.207   3.347
 3139SOL    HW2 9437   3.916   2.098   3.446
 3140SOL     OW 9438   4.188   3.605   2.185
 3140SOL    HW1 9439   4.221   3.644   2.271
 3140SOL    HW2 9440   4.264   3.598   2.120
 3141SOL     OW 9441   3.973   3.647   3.103
 3141SOL    HW1 9442   4.030   3.582   3.153
 3141SOL    HW2 9443   3.957   3.614   3.010
 3142SOL     OW 9444   4.106   2.562   2.342
 3142SOL    HW1 9445   4.151   2.472   2.339
 3142SOL    HW2 9446   4.012   2.551   2.375
 3143SOL     OW 9447   4.338   1.984   1.979
 3143SOL    HW1 9448   4.436   1.962   1.986
 3143SOL    HW2 9449   4.307   1.967   1.886
 3144SOL     OW 9450   4.505   2.126   3.611
 3144SOL    HW1 9451   4.572   2.065   3.654
 3144SOL    HW2 9452   4.432   2.145   3.676
 3145SOL     OW 9453   4.612   3.376   3.057
 3145SOL    HW1 9454   4.589   3.351   2.963
 3145SOL    HW2 9455   4.673   3.307   3.096
 3146SOL     OW 9456   4.527   3.264   2.786
 3146SOL    HW1 9457   4.617   3.278   2.744
 3146SOL    HW2 9458   4.456   3.266   2.715
 3147SOL     OW 9459   4.646   2.365   2.761
 3147SOL    HW1 9460   4.621   2.356   2.665
 3147SOL    HW2 9461   4.694   2.283   2.792
 3148SOL     OW 9462   4.263   1.926   2.374
 3148SOL    HW1 9463   4.182   1.927   2.432
 3148SOL    HW2 9464   4.266   2.009   2.319
 3149SOL     OW 9465   4.021   1.897   2.033
 3149SOL    HW1 9466   4.070   1.981   2.012
 3149SOL    HW2 9467   4.083   1.832   2.078
 3150SOL     OW 9468   4.951   3.432   2.655
 3150SOL    HW1 9469   4.972   3.506   2.590
 3150SOL    HW2 9470   5.019   3.432   2.728
 3151SOL     OW 9471   4.183   3.014   2.603
 3151SOL    HW1 9472   4.112   2.987   2.668
 3151SOL    HW2 9473   4.157   2.986   2.510
 3152SOL     OW 9474   3.802   2.418   3.248
 3152SOL    HW1 9475   3.894   2.417   3.207
 3152SOL    HW2 9476   3.796   2.492   3.315
 3153SOL     OW 9477   4.285   2.084   3.009
 3153SOL    HW1 9478   4.323   2.000   3.046
 3153SOL    HW2 9479   4.197   2.103   3.053
 3154SOL     OW 9480   4.741   1.901   2.615
 3154SOL    HW1 9481   4.669   1.906   2.546
 3154SOL    HW2 9482   4.717   1.832   2.684
 3155SOL     OW 9483   4.212   3.247   2.036
 3155SOL    HW1 9484   4.125   3.232   2.083
 3155SOL    HW2 9485   4.195   3.273   1.941
 3156SOL     OW 9486   4.251   2.118   2.190
 3156SOL    HW1 9487   4.278   2.059   2.115
 3156SOL    HW2 9488   4.251   2.213   2.159
 3157SOL     OW 9489   4.639   1.951   3.264
 3157SOL    HW1 9490   4.664   1.931   3.169
 3157SOL    HW2 9491   4.711   2.007   3.306
 3158SOL     OW 9492   4.429   2.912   2.230
 3158SOL    HW1 9493   4.415   2.919   2.329
 3158SOL    HW2 9494   4.513   2.861   2.212
 3159SOL     OW 9495   4.134   2.675   3.113
 3159SOL    HW1 9496   4.220   2.687   3.163
 3159SOL    HW2 9497   4.092   2.588   3.140
 3160SOL     OW 9498   3.788   3.426   3.193
 3160SOL    HW1 9499   3.742   3.508   3.159
 3160SOL    HW2 9500   3.886   3.445   3.202
 3161SOL     OW 9501   4.091   2.962   2.363
 3161SOL    HW1 9502   4.084   3.045   2.307
 3161SOL    HW2 9503   4.095   2.882   2.303
 3162SOL     OW 9504   4.290   2.399   2.727
 3162SOL    HW1 9505   4.302   2.465   2.653
 3162SOL    HW2 9506   4.336   2.433   2.810
 3163SOL     OW 9507   4.078   3.372   3.191
 3163SOL    HW1 9508   4.057   3.328   3.104
 3163SOL    HW2 9509   4.175   3.398   3.194
 3164SOL     OW 9510   4.126   2.613   3.460
 3164SOL    HW1 9511   4.194   2.668   3.413
 3164SOL    HW2 9512   4.166   2.525   3.487
 3165SOL     OW 9513   4.228   1.912   3.602
 3165SOL    HW1 9514   4.186   1.855   3.532
 3165SOL    HW2 9515   4.162   1.981   3.634
 3166SOL     OW 9516   4.297   2.732   2.891
 3166SOL    HW1 9517   4.341   2.821   2.882
 3166SOL    HW2 9518   4.234   2.732   2.968
 3167SOL     OW 9519   4.933   2.387   2.137
 3167SOL    HW1 9520   4.946   2.303   2.191
 3167SOL    HW2 9521   4.904   2.461   2.197
 3168SOL     OW 9522   4.031   2.075   3.093
 3168SOL    HW1 9523   4.008   2.112   3.183
 3168SOL    HW2 9524   4.001   1.980   3.087
 3169SOL     OW 9525   3.761   3.172   3.144
 3169SOL    HW1 9526   3.814   3.123   3.212
 3169SOL    HW2 9527   3.783   3.270   3.149
 3170SOL     OW 9528   4.456   2.496   2.926
 3170SOL    HW1 9529   4.515   2.470   2.850
 3170SOL    HW2 9530   4.428   2.592   2.915
 3171SOL     OW 9531   4.031   1.925   2.480
 3171SOL    HW1 9532   4.020   2.019   2.513
 3171SOL    HW2 9533   4.026   1.862   2.557
 3172SOL     OW 9534   4.747   2.628   2.828
 3172SOL    HW1 9535   4.762   2.649   2.924
 3172SOL    HW2 9536   4.717   2.533   2.819
 3173SOL     OW 9537   4.704   3.435   3.562
 3173SOL    HW1 9538   4.684   3.479   3.474
 3173SOL    HW2 9539   4.743   3.344   3.546
 3174SOL     OW 9540   4.074   2.760   3.666
 3174SOL    HW1 9541   4.150   2.804   3.714
 3174SOL    HW2 9542   4.109   2.713   3.584
 3175SOL     OW 9543   4.043   2.672   2.811
 3175SOL    HW1 9544   4.136   2.708   2.816
 3175SOL    HW2 9545   4.037   2.587   2.863
 3176SOL     OW 9546   4.063   2.371   2.868
 3176SOL    HW1 9547   4.011   2.288   2.851
 3176SOL    HW2 9548   4.140   2.376   2.804
 3177SOL     OW 9549   3.732   3.188   2.062
 3177SOL    HW1 9550   3.639   3.209   2.031
 3177SOL    HW2 9551   3.742   3.089   2.075
 3178SOL     OW 9552   3.812   3.663   2.789
 3178SOL    HW1 9553   3.770   3.577   2.762
 3178SOL    HW2 9554   3.906   3.666   2.755
 3179SOL     OW 9555   4.228   3.430   2.772
 3179SOL    HW1 9556   4.294   3.504   2.781
 3179SOL    HW2 9557   4.272   3.351   2.730
 3180SOL     OW 9558   4.726   2.658   3.100
 3180SOL    HW1 9559   4.767   2.626   3.186
 3180SOL    HW2 9560   4.630   2.631   3.097
 3181SOL     OW 9561   3.764   2.406   2.976
 3181SOL    HW1 9562   3.849   2.373   2.935
 3181SOL    HW2 9563   3.777   2.421   3.074
 3182SOL     OW 9564   3.913   2.382   3.584
 3182SOL    HW1 9565   3.972   2.342   3.514
 3182SOL    HW2 9566   3.855   2.453   3.543
 3183SOL     OW 9567   4.539   2.434   2.187
 3183SOL    HW1 9568   4.546   2.345   2.141
 3183SOL    HW2 9569   4.445   2.468   2.179
 3184SOL     OW 9570   3.976   3.426   3.606
 3184SOL    HW1 9571   3.946   3.483   3.682
 3184SOL    HW2 9572   3.969   3.329   3.632
 3185SOL     OW 9573   4.395   2.326   3.131
 3185SOL    HW1 9574   4.361   2.237   3.101
 3185SOL    HW2 9575   4.421   2.380   3.051
 3186SOL     OW 9576   4.654   3.540   3.327
 3186SOL    HW1 9577   4.630   3.522   3.232
 3186SOL    HW2 9578   4.684   3.634   3.337
 3187SOL     OW 9579   4.197   2.362   2.053
 3187SOL    HW1 9580   4.258   2.442   2.057
 3187SOL    HW2 9581   4.102   2.393   2.060
 3188SOL     OW 9582   3.883   2.999   3.328
 3188SOL    HW1 9583   3.905   2.938   3.404
 3188SOL    HW2 9584   3.893   2.950   3.242
 3189SOL     OW 9585   3.807   3.120   2.884
 3189SOL    HW1 9586   3.802   3.119   2.984
 3189SOL    HW2 9587   3.724   3.079   2.846
 3190SOL     OW 9588   4.412   3.524   3.578
 3190SOL    HW1 9589   4.356   3.605   3.587
 3190SOL    HW2 9590   4.464   3.528   3.492
 3191SOL     OW 9591   4.627   1.948   1.995
 3191SOL    HW1 9592   4.678   1.949   1.909
 3191SOL    HW2 9593   4.683   1.906   2.066
 3192SOL     OW 9594   3.854   3.656   3.713
 3192SOL    HW1 9595   3.813   3.582   3.766
 3192SOL    HW2 9596   3.918   3.707   3.771
 3193SOL     OW 9597   4.554   3.135   3.284
 3193SOL    HW1 9598   4.549   3.168   3.379
 3193SOL    HW2 9599   4.468   3.154   3.238
 3194SOL     OW 9600   4.396   3.478   2.016
 3194SOL    HW1 9601   4.405   3.488   1.917
 3194SOL    HW2 9602   4.356   3.389   2.037
 3195SOL     OW 9603   3.987   2.188   2.582
 3195SOL    HW1 9604   3.908   2.239   2.548
 3195SOL    HW2 9605   3.978   2.173   2.680
 3196SOL     OW 9606   4.546   2.864   3.234
 3196SOL    HW1 9607   4.586   2.863   3.142
 3196SOL    HW2 9608   4.556   2.956   3.274
 3197SOL     OW 9609   4.096   3.150   3.352
 3197SOL    HW1 9610   4.083   3.243   3.318
 3197SOL    HW2 9611   4.012   3.098   3.339
 3198SOL     OW 9612   4.314   3.349   2.353
 3198SOL    HW1 9613   4.356   3.291   2.283
 3198SOL    HW2 9614   4.270   3.428   2.309
 3199SOL     OW 9615   3.979   3.210   2.152
 3199SOL    HW1 9616   3.883   3.211   2.125
 3199SOL    HW2 9617   3.991   3.263   2.236
 3200SOL     OW 9618   3.829   2.875   3.588
 3200SOL    HW1 9619   3.752   2.842   3.642
 3200SOL    HW2 9620   3.914   2.845   3.630
 3201SOL     OW 9621   4.396   2.065   3.351
 3201SOL    HW1 9622   4.486   2.049   3.311
 3201SOL    HW2 9623   4.404   2.070   3.450
 3202SOL     OW 9624   3.799   2.207   1.895
 3202SOL    HW1 9625   3.707   2.179   1.866
 3202SOL    HW2 9626   3.830   2.284   1.839
 3203SOL     OW 9627   3.796   2.028   2.180
 3203SOL    HW1 9628   3.779   2.111   2.126
 3203SOL    HW2 9629   3.886   1.991   2.158
 3204SOL     OW 9630   4.337   2.704   3.293
 3204SOL    HW1 9631   4.393   2.785   3.276
 3204SOL    HW2 9632   4.396   2.624   3.296
 3205SOL     OW 9633   4.440   2.427   3.570
 3205SOL    HW1 9634   4.459   2.492   3.644
 3205SOL    HW2 9635   4.500   2.347   3.579
 3206SOL     OW 9636   4.114   3.603   3.422
 3206SOL    HW1 9637   4.023   3.644   3.420
 3206SOL    HW2 9638   4.107   3.509   3.454
 3207SOL     OW 9639   4.949   2.187   2.311
 3207SOL    HW1 9640   5.014   2.113   2.300
 3207SOL    HW2 9641   4.969   2.237   2.395
 3208SOL     OW 9642   4.318   2.607   2.514
 3208SOL    HW1 9643   4.368   2.692   2.495
 3208SOL    HW2 9644   4.230   2.609   2.466
 3209SOL     OW 9645   4.583   3.236   1.878
 3209SOL    HW1 9646   4.537   3.251   1.966
 3209SOL    HW2 9647   4.627   3.321   1.848
 3210SOL     OW 9648   4.385   3.652   2.815
 3210SOL    HW1 9649   4.339   3.740   2.802
 3210SOL    HW2 9650   4.484   3.664   2.808
 3211SOL     OW 9651   4.583   2.818   2.723
 3211SOL    HW1 9652   4.637   2.749   2.771
 3211SOL    HW2 9653   4.551   2.887   2.789
 3212SOL     OW 9654   3.945   3.176   3.706
 3212SOL    HW1 9655   3.880   3.103   3.685
 3212SOL    HW2 9656   3.949   3.190   3.804
 3213SOL     OW 9657   3.803   3.102   2.515
 3213SOL    HW1 9658   3.802   3.055   2.603
 3213SOL    HW2 9659   3.885   3.074   2.464
 3214SOL     OW 9660   4.396   3.253   3.486
 3214SOL    HW1 9661   4.318   3.203   3.524
 3214SOL    HW2 9662   4.393   3.348   3.517
 3215SOL     OW 9663   4.152   2.286   2.382
 3215SOL    HW1 9664   4.182   2.214   2.320
 3215SOL    HW2 9665   4.113   2.246   2.465
 3216SOL     OW 9666   4.041   2.409   3.142
 3216SOL    HW1 9667   4.079   2.350   3.214
 3216SOL    HW2 9668   4.081   2.383   3.054
 3217SOL     OW 9669   4.536   3.448   2.549
 3217SOL    HW1 9670   4.568   3.458   2.455
 3217SOL    HW2 9671   4.457   3.386   2.551
 3218SOL     OW 9672   4.725   1.896   3.016
 3218SOL    HW1 9673   4.662   1.824   2.985
 3218SOL    HW2 9674   4.818   1.860   3.016
 3219SOL     OW 9675   4.494   3.192   2.163
 3219SOL    HW1 9676   4.448   3.105   2.180
 3219SOL    HW2 9677   4.585   3.189   2.204
 3220SOL     OW 9678   4.342   3.429   3.146
 3220SOL    HW1 9679   4.337   3.511   3.203
 3220SOL    HW2 9680   4.431   3.426   3.101
 3221SOL     OW 9681   3.763   2.939   2.162
 3221SOL    HW1 9682   3.862   2.928   2.153
 3221SOL    HW2 9683   3.723   2.853   2.194
 3222SOL     OW 9684   4.599   3.508   2.199
 3222SOL    HW1 9685   4.522   3.473   2.145
 3222SOL    HW2 9686   4.567   3.579   2.261
 3223SOL     OW 9687   3.954   2.490   3.837
 3223SOL    HW1 9688   3.861   2.488   3.874
 3223SOL    HW2 9689   3.955   2.451   3.745
 3224SOL     OW 9690   3.949   2.137   4.720
 3224SOL    HW1 9691   3.984   2.120   4.812
 3224SOL    HW2 9692   3.861   2.092   4.708
 3225SOL     OW 9693   3.743   2.230   4.371
 3225SOL    HW1 9694   3.661   2.273   4.410
 3225SOL    HW2 9695   3.715   2.157   4.308
 3226SOL     OW 9696   4.492   3.006   4.747
 3226SOL    HW1 9697   4.414   3.023   4.807
 3226SOL    HW2 9698   4.526   3.093   4.711
 3227SOL     OW 9699   4.409   2.874   4.389
 3227SOL    HW1 9700   4.478   2.858   4.459
 3227SOL    HW2 9701   4.336   2.931   4.427
 3228SOL     OW 9702   3.955   3.575   4.207
 3228SOL    HW1 9703   3.989   3.652   4.261
 3228SOL    HW2 9704   3.999   3.575   4.117
 3229SOL     OW 9705   3.954   3.296   4.262
 3229SOL    HW1 9706   3.928   3.392   4.262
 3229SOL    HW2 9707   3.883   3.242   4.307
 3230SOL     OW 9708   3.964   2.953   4.610
 3230SOL    HW1 9709   3.978   2.869   4.662
 3230SOL    HW2 9710   3.909   3.017   4.665
 3231SOL     OW 9711   4.330   2.826   3.847
 3231SOL    HW1 9712   4.337   2.910   3.793
 3231SOL    HW2 9713   4.376   2.839   3.935
 3232SOL     OW 9714   3.846   2.505   4.287
 3232SOL    HW1 9715   3.801   2.417   4.304
 3232SOL    HW2 9716   3.845   2.559   4.371
 3233SOL     OW 9717   3.751   3.458   3.841
 3233SOL    HW1 9718   3.732   3.362   3.862
 3233SOL    HW2 9719   3.718   3.516   3.916
 3234SOL     OW 9720   4.337   3.227   4.450
 3234SOL    HW1 9721   4.288   3.140   4.459
 3234SOL    HW2 9722   4.314   3.270   4.363
 3235SOL     OW 9723   4.533   1.866   4.226
 3235SOL    HW1 9724   4.573   1.957   4.217
 3235SOL    HW2 9725   4.433   1.874   4.232
 3236SOL     OW 9726   4.322   2.591   3.994
 3236SOL    HW1 9727   4.346   2.660   3.926
 3236SOL    HW2 9728   4.244   2.624   4.048
 3237SOL     OW 9729   3.800   2.673   4.513
 3237SOL    HW1 9730   3.899   2.661   4.522
 3237SOL    HW2 9731   3.776   2.768   4.534
 3238SOL     OW 9732   4.589   2.210   3.919
 3238SOL    HW1 9733   4.648   2.273   3.870
 3238SOL    HW2 9734   4.608   2.116   3.890
 3239SOL     OW 9735   4.732   3.318   4.201
 3239SOL    HW1 9736   4.686   3.390   4.149
 3239SOL    HW2 9737   4.728   3.338   4.299
 3240SOL     OW 9738   4.075   3.663   4.577
 3240SOL    HW1 9739   4.125   3.577   4.583
 3240SOL    HW2 9740   4.140   3.740   4.574
 3241SOL     OW 9741   4.045   2.805   3.966
 3241SOL    HW1 9742   4.127   2.844   3.924
 3241SOL    HW2 9743   4.018   2.723   3.917
 3242SOL     OW 9744   4.188   3.605   4.047
 3242SOL    HW1 9745   4.221   3.644   4.133
 3242SOL    HW2 9746   4.264   3.598   3.982
 3243SOL     OW 9747   4.106   2.562   4.204
 3243SOL    HW1 9748   4.151   2.472   4.201
 3243SOL    HW2 9749   4.012   2.551   4.237
 3244SOL     OW 9750   4.338   1.984   3.841
 3244SOL    HW1 9751   4.436   1.962   3.848
 3244SOL    HW2 9752   4.307   1.967   3.748
 3245SOL     OW 9753   4.646   2.365   4.623
 3245SOL    HW1 9754   4.621   2.356   4.527
 3245SOL    HW2 9755   4.694   2.283   4.654
 3246SOL     OW 9756   4.263   1.926   4.236
 3246SOL    HW1 9757   4.182   1.927   4.294
 3246SOL    HW2 9758   4.266   2.009   4.181
 3247SOL     OW 9759   4.021   1.897   3.895
 3247SOL    HW1 9760   4.070   1.981   3.874
 3247SOL    HW2 9761   4.083   1.832   3.940
 3248SOL     OW 9762   4.951   3.432   4.517
 3248SOL    HW1 9763   4.972   3.506   4.452
 3248SOL    HW2 9764   5.019   3.432   4.590
 3249SOL     OW 9765   4.183   3.014   4.465
 3249SOL    HW1 9766   4.112   2.987   4.530
 3249SOL    HW2 9767   4.157   2.986   4.372
 3250SOL     OW 9768   4.741   1.901   4.477
 3250SOL    HW1 9769   4.669   1.906   4.408
 3250SOL    HW2 9770   4.717   1.832   4.546
 3251SOL     OW 9771   4.212   3.247   3.898
 3251SOL    HW1 9772   4.125   3.232   3.945
 3251SOL    HW2 9773   4.195   3.273   3.803
 3252SOL     OW 9774   4.251   2.118   4.052
 3252SOL    HW1 9775   4.278   2.059   3.977
 3252SOL    HW2 9776   4.251   2.213   4.021
 3253SOL     OW 9777   4.429   2.912   4.092
 3253SOL    HW1 9778   4.415   2.919   4.191
 3253SOL    HW2 9779   4.513   2.861   4.074
 3254SOL     OW 9780   4.091   2.962   4.225
 3254SOL    HW1 9781   4.084   3.045   4.169
 3254SOL    HW2 9782   4.095   2.882   4.165
 3255SOL     OW 9783   4.290   2.399   4.589
 3255SOL    HW1 9784   4.302   2.465   4.515
 3255SOL    HW2 9785   4.336   2.433   4.672
 3256SOL     OW 9786   4.933   2.387   3.999
 3256SOL    HW1 9787   4.946   2.303   4.053
 3256SOL    HW2 9788   4.904   2.461   4.059
 3257SOL     OW 9789   4.456   2.496   4.788
 3257SOL    HW1 9790   4.515   2.470   4.712
 3257SOL    HW2 9791   4.428   2.592   4.777
 3258SOL     OW 9792   4.031   1.925   4.342
 3258SOL    HW1 9793   4.020   2.019   4.375
 3258SOL    HW2 9794   4.026   1.862   4.419
 3259SOL     OW 9795   4.747   2.628   4.690
 3259SOL    HW1 9796   4.762   2.649   4.786
 3259SOL    HW2 9797   4.717   2.533   4.681
 3260SOL     OW 9798   4.043   2.672   4.673
 3260SOL    HW1 9799   4.136   2.708   4.678
 3260SOL    HW2 9800   4.037   2.587   4.725
 3261SOL     OW 9801   3.732   3.188   3.924
 3261SOL    HW1 9802   3.639   3.209   3.893
 3261SOL    HW2 9803   3.742   3.089   3.937
 3262SOL     OW 9804   3.812   3.663   4.651
 3262SOL    HW1 9805   3.770   3.577   4.624
 3262SOL    HW2 9806   3.906   3.666   4.617
 3263SOL     OW 9807   4.228   3.430   4.634
 3263SOL    HW1 9808   4.294   3.504   4.643
 3263SOL    HW2 9809   4.272   3.351   4.592
 3264SOL     OW 9810   4.726   2.658   4.962
 3264SOL    HW1 9811   4.767   2.626   5.048
 3264SOL    HW2 9812   4.630   2.631   4.959
 3265SOL     OW 9813   4.539   2.434   4.049
 3265SOL    HW1 9814   4.546   2.345   4.003
 3265SOL    HW2 9815   4.445   2.468   4.041
 3266SOL     OW 9816   4.197   2.362   3.915
 3266SOL    HW1 9817   4.258   2.442   3.919
 3266SOL    HW2 9818   4.102   2.393   3.922
 3267SOL     OW 9819   4.976   3.593   4.852
 3267SOL    HW1 9820   5.060   3.598   4.798
 3267SOL    HW2 9821   4.953   3.497   4.870
 3268SOL     OW 9822   4.627   1.948   3.857
 3268SOL    HW1 9823   4.678   1.949   3.771
 3268SOL    HW2 9824   4.683   1.906   3.928
 3269SOL     OW 9825   4.396   3.478   3.878
 3269SOL    HW1 9826   4.405   3.488   3.779
 3269SOL    HW2 9827   4.356   3.389   3.899
 3270SOL     OW 9828   3.987   2.188   4.444
 3270SOL    HW1 9829   3.908   2.239   4.410
 3270SOL    HW2 9830   3.978   2.173   4.542
 3271SOL     OW 9831   4.314   3.349   4.215
 3271SOL    HW1 9832   4.356   3.291   4.145
 3271SOL    HW2 9833   4.270   3.428   4.171
 3272SOL     OW 9834   3.979   3.210   4.014
 3272SOL    HW1 9835   3.883   3.211   3.987
 3272SOL    HW2 9836   3.991   3.263   4.098
 3273SOL     OW 9837   3.799   2.207   3.757
 3273SOL    HW1 9838   3.707   2.179   3.728
 3273SOL    HW2 9839   3.830   2.284   3.701
 3274SOL     OW 9840   3.796   2.028   4.042
 3274SOL    HW1 9841   3.779   2.111   3.988
 3274SOL    HW2 9842   3.886   1.991   4.020
 3275SOL     OW 9843   4.949   2.187   4.173
 3275SOL    HW1 9844   5.014   2.113   4.162
 3275SOL    HW2 9845   4.969   2.237   4.257
 3276SOL     OW 9846   4.318   2.607   4.376
 3276SOL    HW1 9847   4.368   2.692   4.357
 3276SOL    HW2 9848   4.230   2.609   4.328
 3277SOL     OW 9849   4.583   3.236   3.740
 3277SOL    HW1 9850   4.537   3.251   3.828
 3277SOL    HW2 9851   4.627   3.321   3.710
 3278SOL     OW 9852   4.385   3.652   4.677
 3278SOL    HW1 9853   4.339   3.740   4.664
 3278SOL    HW2 9854   4.484   3.664   4.670
 3279SOL     OW 9855   4.583   2.818   4.585
 3279SOL    HW1 9856   4.637   2.749   4.633
 3279SOL    HW2 9857   4.551   2.887   4.651
 3280SOL     OW 9858   3.803   3.102   4.377
 3280SOL    HW1 9859   3.802   3.055   4.465
 3280SOL    HW2 9860   3.885   3.074   4.326
 3281SOL     OW 9861   4.152   2.286   4.244
 3281SOL    HW1 9862   4.182   2.214   4.182
 3281SOL    HW2 9863   4.113   2.246   4.327
 3282SOL     OW 9864   4.536   3.448   4.411
 3282SOL    HW1 9865   4.568   3.458   4.317
 3282SOL    HW2 9866   4.457   3.386   4.413
 3283SOL     OW 9867   4.494   3.192   4.025
 3283SOL    HW1 9868   4.448   3.105   4.042
 3283SOL    HW2 9869   4.585   3.189   4.066
 3284SOL     OW 9870   3.763   2.939   4.024
 3284SOL    HW1 9871   3.862   2.928   4.015
 3284SOL    HW2 9872   3.723   2.853   4.056
 3285SOL     OW 9873   4.599   3.508   4.061
 3285SOL    HW1 9874   4.522   3.473   4.007
 3285SOL    HW2 9875   4.567   3.579   4.123
 3286SOL     OW 9876   3.954   4.352   0.113
 3286SOL    HW1 9877   3.861   4.350   0.150
 3286SOL    HW2 9878   3.955   4.313   0.021
 3287SOL     OW 9879   3.949   3.999   0.996
 3287SOL    HW1 9880   3.984   3.982   1.088
 3287SOL    HW2 9881   3.861   3.954   0.984
 3288SOL     OW 9882   3.743   4.092   0.647
 3288SOL    HW1 9883   3.661   4.135   0.686
 3288SOL    HW2 9884   3.715   4.019   0.584
 3289SOL     OW 9885   4.574   4.522   1.823
 3289SOL    HW1 9886   4.570   4.598   1.888
 3289SOL    HW2 9887   4.596   4.558   1.732
 3290SOL     OW 9888   4.409   4.736   0.665
 3290SOL    HW1 9889   4.478   4.720   0.735
 3290SOL    HW2 9890   4.336   4.793   0.703
 3291SOL     OW 9891   4.162   4.116   1.499
 3291SOL    HW1 9892   4.244   4.060   1.508
 3291SOL    HW2 9893   4.081   4.058   1.503
 3292SOL     OW 9894   3.846   4.367   0.563
 3292SOL    HW1 9895   3.801   4.279   0.580
 3292SOL    HW2 9896   3.845   4.421   0.647
 3293SOL     OW 9897   3.837   4.461   1.597
 3293SOL    HW1 9898   3.925   4.448   1.642
 3293SOL    HW2 9899   3.824   4.558   1.575
 3294SOL     OW 9900   4.533   3.728   0.502
 3294SOL    HW1 9901   4.573   3.819   0.493
 3294SOL    HW2 9902   4.433   3.736   0.508
 3295SOL     OW 9903   3.921   4.700   1.264
 3295SOL    HW1 9904   4.010   4.655   1.250
 3295SOL    HW2 9905   3.848   4.635   1.245
 3296SOL     OW 9906   4.041   3.975   1.801
 3296SOL    HW1 9907   4.112   4.046   1.807
 3296SOL    HW2 9908   3.953   4.014   1.829
 3297SOL     OW 9909   4.322   4.453   0.270
 3297SOL    HW1 9910   4.346   4.522   0.202
 3297SOL    HW2 9911   4.244   4.486   0.324
 3298SOL     OW 9912   4.531   4.329   1.465
 3298SOL    HW1 9913   4.484   4.326   1.554
 3298SOL    HW2 9914   4.480   4.274   1.399
 3299SOL     OW 9915   4.715   4.134   1.242
 3299SOL    HW1 9916   4.638   4.168   1.296
 3299SOL    HW2 9917   4.681   4.083   1.163
 3300SOL     OW 9918   3.800   4.535   0.789
 3300SOL    HW1 9919   3.899   4.523   0.798
 3300SOL    HW2 9920   3.776   4.630   0.810
 3301SOL     OW 9921   4.589   4.072   0.195
 3301SOL    HW1 9922   4.648   4.135   0.146
 3301SOL    HW2 9923   4.608   3.978   0.166
 3302SOL     OW 9924   4.274   3.920   0.885
 3302SOL    HW1 9925   4.269   3.915   0.985
 3302SOL    HW2 9926   4.276   4.016   0.856
 3303SOL     OW 9927   3.926   4.009   1.498
 3303SOL    HW1 9928   3.846   4.069   1.485
 3303SOL    HW2 9929   3.916   3.960   1.584
 3304SOL     OW 9930   4.106   4.424   0.480
 3304SOL    HW1 9931   4.151   4.334   0.477
 3304SOL    HW2 9932   4.012   4.413   0.513
 3305SOL     OW 9933   4.338   3.846   0.117
 3305SOL    HW1 9934   4.436   3.824   0.124
 3305SOL    HW2 9935   4.307   3.829   0.024
 3306SOL     OW 9936   4.505   3.988   1.749
 3306SOL    HW1 9937   4.572   3.927   1.792
 3306SOL    HW2 9938   4.432   4.007   1.814
 3307SOL     OW 9939   4.646   4.227   0.899
 3307SOL    HW1 9940   4.621   4.218   0.803
 3307SOL    HW2 9941   4.694   4.145   0.930
 3308SOL     OW 9942   4.263   3.788   0.512
 3308SOL    HW1 9943   4.182   3.789   0.570
 3308SOL    HW2 9944   4.266   3.871   0.457
 3309SOL     OW 9945   4.021   3.759   0.171
 3309SOL    HW1 9946   4.070   3.843   0.150
 3309SOL    HW2 9947   4.083   3.694   0.216
 3310SOL     OW 9948   3.802   4.280   1.386
 3310SOL    HW1 9949   3.894   4.279   1.345
 3310SOL    HW2 9950   3.796   4.354   1.453
 3311SOL     OW 9951   4.285   3.946   1.147
 3311SOL    HW1 9952   4.323   3.862   1.184
 3311SOL    HW2 9953   4.197   3.965   1.191
 3312SOL     OW 9954   4.741   3.763   0.753
 3312SOL    HW1 9955   4.669   3.768   0.684
 3312SOL    HW2 9956   4.717   3.694   0.822
 3313SOL     OW 9957   4.251   3.980   0.328
 3313SOL    HW1 9958   4.278   3.921   0.253
 3313SOL    HW2 9959   4.251   4.075   0.297
 3314SOL     OW 9960   4.639   3.813   1.402
 3314SOL    HW1 9961   4.664   3.793   1.307
 3314SOL    HW2 9962   4.711   3.869   1.444
 3315SOL     OW 9963   4.134   4.537   1.251
 3315SOL    HW1 9964   4.220   4.549   1.301
 3315SOL    HW2 9965   4.092   4.450   1.278
 3316SOL     OW 9966   4.290   4.261   0.865
 3316SOL    HW1 9967   4.302   4.327   0.791
 3316SOL    HW2 9968   4.336   4.295   0.948
 3317SOL     OW 9969   4.126   4.475   1.598
 3317SOL    HW1 9970   4.194   4.530   1.551
 3317SOL    HW2 9971   4.166   4.387   1.625
 3318SOL     OW 9972   4.228   3.774   1.740
 3318SOL    HW1 9973   4.186   3.717   1.670
 3318SOL    HW2 9974   4.162   3.843   1.772
 3319SOL     OW 9975   4.297   4.594   1.029
 3319SOL    HW1 9976   4.341   4.683   1.020
 3319SOL    HW2 9977   4.234   4.594   1.106
 3320SOL     OW 9978   4.933   4.249   0.275
 3320SOL    HW1 9979   4.946   4.165   0.329
 3320SOL    HW2 9980   4.904   4.323   0.335
 3321SOL     OW 9981   4.031   3.937   1.231
 3321SOL    HW1 9982   4.008   3.974   1.321
 3321SOL    HW2 9983   4.001   3.842   1.225
 3322SOL     OW 9984   4.456   4.358   1.064
 3322SOL    HW1 9985   4.515   4.332   0.988
 3322SOL    HW2 9986   4.428   4.454   1.053
 3323SOL     OW 9987   4.031   3.787   0.618
 3323SOL    HW1 9988   4.020   3.881   0.651
 3323SOL    HW2 9989   4.026   3.724   0.695
 3324SOL     OW 9990   4.747   4.490   0.966
 3324SOL    HW1 9991   4.762   4.511   1.062
 3324SOL    HW2 9992   4.717   4.395   0.957
 3325SOL     OW 9993   4.074   4.622   1.804
 3325SOL    HW1 9994   4.150   4.666   1.852
 3325SOL    HW2 9995   4.109   4.575   1.722
 3326SOL     OW 9996   4.792   5.057   0.849
 3326SOL    HW1 9997   4.799   4.973   0.794
 3326SOL    HW2 9998   4.854   5.126   0.813
 3327SOL     OW 9999   4.043   4.534   0.949
 3327SOL    HW110000   4.136   4.570   0.954
 3327SOL    HW210001   4.037   4.449   1.001
 3328SOL     OW10002   4.063   4.233   1.006
 3328SOL    HW110003   4.011   4.150   0.989
 3328SOL    HW210004   4.140   4.238   0.942
 3329SOL     OW10005   4.726   4.520   1.238
 3329SOL    HW110006   4.767   4.488   1.324
 3329SOL    HW210007   4.630   4.493   1.235
 3330SOL     OW10008   3.764   4.268   1.114
 3330SOL    HW110009   3.849   4.235   1.073
 3330SOL    HW210010   3.777   4.283   1.212
 3331SOL     OW10011   3.913   4.244   1.722
 3331SOL    HW110012   3.972   4.204   1.652
 3331SOL    HW210013   3.855   4.315   1.681
 3332SOL     OW10014   4.539   4.296   0.325
 3332SOL    HW110015   4.546   4.207   0.279
 3332SOL    HW210016   4.445   4.330   0.317
 3333SOL     OW10017   4.395   4.188   1.269
 3333SOL    HW110018   4.361   4.099   1.239
 3333SOL    HW210019   4.421   4.242   1.189
 3334SOL     OW10020   4.197   4.224   0.191
 3334SOL    HW110021   4.258   4.304   0.195
 3334SOL    HW210022   4.102   4.255   0.198
 3335SOL     OW10023   3.883   4.861   1.466
 3335SOL    HW110024   3.905   4.800   1.542
 3335SOL    HW210025   3.893   4.812   1.380
 3336SOL     OW10026   5.026   4.579   0.309
 3336SOL    HW110027   4.940   4.548   0.351
 3336SOL    HW210028   5.022   4.565   0.210
 3337SOL     OW10029   4.627   3.810   0.133
 3337SOL    HW110030   4.678   3.811   0.047
 3337SOL    HW210031   4.683   3.768   0.204
 3338SOL     OW10032   3.987   4.050   0.720
 3338SOL    HW110033   3.908   4.101   0.686
 3338SOL    HW210034   3.978   4.035   0.818
 3339SOL     OW10035   4.763   4.822   0.696
 3339SOL    HW110036   4.693   4.775   0.750
 3339SOL    HW210037   4.822   4.754   0.653
 3340SOL     OW10038   3.829   4.737   1.726
 3340SOL    HW110039   3.752   4.704   1.780
 3340SOL    HW210040   3.914   4.707   1.768
 3341SOL     OW10041   4.396   3.927   1.489
 3341SOL    HW110042   4.486   3.911   1.449
 3341SOL    HW210043   4.404   3.932   1.588
 3342SOL     OW10044   4.337   4.566   1.431
 3342SOL    HW110045   4.393   4.647   1.414
 3342SOL    HW210046   4.396   4.486   1.434
 3343SOL     OW10047   4.440   4.289   1.708
 3343SOL    HW110048   4.459   4.354   1.782
 3343SOL    HW210049   4.500   4.209   1.717
 3344SOL     OW10050   4.949   4.049   0.449
 3344SOL    HW110051   5.014   3.975   0.438
 3344SOL    HW210052   4.969   4.099   0.533
 3345SOL     OW10053   4.318   4.469   0.652
 3345SOL    HW110054   4.368   4.554   0.633
 3345SOL    HW210055   4.230   4.471   0.604
 3346SOL     OW10056   4.583   4.680   0.861
 3346SOL    HW110057   4.637   4.611   0.909
 3346SOL    HW210058   4.551   4.749   0.927
 3347SOL     OW10059   4.152   4.148   0.520
 3347SOL    HW110060   4.182   4.076   0.458
 3347SOL    HW210061   4.113   4.108   0.603
 3348SOL     OW10062   4.041   4.271   1.280
 3348SOL    HW110063   4.079   4.212   1.352
 3348SOL    HW210064   4.081   4.245   1.192
 3349SOL     OW10065   4.725   3.758   1.154
 3349SOL    HW110066   4.662   3.686   1.123
 3349SOL    HW210067   4.818   3.722   1.154
 3350SOL     OW10068   3.954   4.352   1.975
 3350SOL    HW110069   3.861   4.350   2.012
 3350SOL    HW210070   3.955   4.313   1.883
 3351SOL     OW10071   3.949   3.999   2.858
 3351SOL    HW110072   3.984   3.982   2.950
 3351SOL    HW210073   3.861   3.954   2.846
 3352SOL     OW10074   3.743   4.092   2.509
 3352SOL    HW110075   3.661   4.135   2.548
 3352SOL    HW210076   3.715   4.019   2.446
 3353SOL     OW10077   4.574   4.522   3.685
 3353SOL    HW110078   4.570   4.598   3.750
 3353SOL    HW210079   4.596   4.558   3.594
 3354SOL     OW10080   4.409   4.736   2.527
 3354SOL    HW110081   4.478   4.720   2.597
 3354SOL    HW210082   4.336   4.793   2.565
 3355SOL     OW10083   4.162   4.116   3.361
 3355SOL    HW110084   4.244   4.060   3.370
 3355SOL    HW210085   4.081   4.058   3.365
 3356SOL     OW10086   3.846   4.367   2.425
 3356SOL    HW110087   3.801   4.279   2.442
 3356SOL    HW210088   3.845   4.421   2.509
 3357SOL     OW10089   3.837   4.461   3.459
 3357SOL    HW110090   3.925   4.448   3.504
 3357SOL    HW210091   3.824   4.558   3.437
 3358SOL     OW10092   4.533   3.728   2.364
 3358SOL    HW110093   4.573   3.819   2.355
 3358SOL    HW210094   4.433   3.736   2.370
 3359SOL     OW10095   3.921   4.700   3.126
 3359SOL    HW110096   4.010   4.655   3.112
 3359SOL    HW210097   3.848   4.635   3.107
 3360SOL     OW10098   4.041   3.975   3.663
 3360SOL    HW110099   4.112   4.046   3.669
 3360SOL    HW210100   3.953   4.014   3.691
 3361SOL     OW10101   4.322   4.453   2.132
 3361SOL    HW110102   4.346   4.522   2.064
 3361SOL    HW210103   4.244   4.486   2.186
 3362SOL     OW10104   4.531   4.329   3.327
 3362SOL    HW110105   4.484   4.326   3.416
 3362SOL    HW210106   4.480   4.274   3.261
 3363SOL     OW10107   4.715   4.134   3.104
 3363SOL    HW110108   4.638   4.168   3.158
 3363SOL    HW210109   4.681   4.083   3.025
 3364SOL     OW10110   3.800   4.535   2.651
 3364SOL    HW110111   3.899   4.523   2.660
 3364SOL    HW210112   3.776   4.630   2.672
 3365SOL     OW10113   4.589   4.072   2.057
 3365SOL    HW110114   4.648   4.135   2.008
 3365SOL    HW210115   4.608   3.978   2.028
 3366SOL     OW10116   4.274   3.920   2.747
 3366SOL    HW110117   4.269   3.915   2.847
 3366SOL    HW210118   4.276   4.016   2.718
 3367SOL     OW10119   3.926   4.009   3.360
 3367SOL    HW110120   3.846   4.069   3.347
 3367SOL    HW210121   3.916   3.960   3.446
 3368SOL     OW10122   4.106   4.424   2.342
 3368SOL    HW110123   4.151   4.334   2.339
 3368SOL    HW210124   4.012   4.413   2.375
 3369SOL     OW10125   4.338   3.846   1.979
 3369SOL    HW110126   4.436   3.824   1.986
 3369SOL    HW210127   4.307   3.829   1.886
 3370SOL     OW10128   4.505   3.988   3.611
 3370SOL    HW110129   4.572   3.927   3.654
 3370SOL    HW210130   4.432   4.007   3.676
 3371SOL     OW10131   4.646   4.227   2.761
 3371SOL    HW110132   4.621   4.218   2.665
 3371SOL    HW210133   4.694   4.145   2.792
 3372SOL     OW10134   4.263   3.788   2.374
 3372SOL    HW110135   4.182   3.789   2.432
 3372SOL    HW210136   4.266   3.871   2.319
 3373SOL     OW10137   4.021   3.759   2.033
 3373SOL    HW110138   4.070   3.843   2.012
 3373SOL    HW210139   4.083   3.694   2.078
 3374SOL     OW10140   3.802   4.280   3.248
 3374SOL    HW110141   3.894   4.279   3.207
 3374SOL    HW210142   3.796   4.354   3.315
 3375SOL     OW10143   4.285   3.946   3.009
 3375SOL    HW110144   4.323   3.862   3.046
 3375SOL    HW210145   4.197   3.965   3.053
 3376SOL     OW10146   4.741   3.763   2.615
 3376SOL    HW110147   4.669   3.768   2.546
 3376SOL    HW210148   4.717   3.694   2.684
 3377SOL     OW10149   4.251   3.980   2.190
 3377SOL    HW110150   4.278   3.921   2.115
 3377SOL    HW210151   4.251   4.075   2.159
 3378SOL     OW10152   4.639   3.813   3.264
 3378SOL    HW110153   4.664   3.793   3.169
 3378SOL    HW210154   4.711   3.869   3.306
 3379SOL     OW10155   4.134   4.537   3.113
 3379SOL    HW110156   4.220   4.549   3.163
 3379SOL    HW210157   4.092   4.450   3.140
 3380SOL     OW10158   4.290   4.261   2.727
 3380SOL    HW110159   4.302   4.327   2.653
 3380SOL    HW210160   4.336   4.295   2.810
 3381SOL     OW10161   4.126   4.475   3.460
 3381SOL    HW110162   4.194   4.530   3.413
 3381SOL    HW210163   4.166   4.387   3.487
 3382SOL     OW10164   4.228   3.774   3.602
 3382SOL    HW110165   4.186   3.717   3.532
 3382SOL    HW210166   4.162   3.843   3.634
 3383SOL     OW10167   4.297   4.594   2.891
 3383SOL    HW110168   4.341   4.683   2.882
 3383SOL    HW210169   4.234   4.594   2.968
 3384SOL     OW10170   4.933   4.249   2.137
 3384SOL    HW110171   4.946   4.165   2.191
 3384SOL    HW210172   4.904   4.323   2.197
 3385SOL     OW10173   4.031   3.937   3.093
 3385SOL    HW110174   4.008   3.974   3.183
 3385SOL    HW210175   4.001   3.842   3.087
 3386SOL     OW10176   4.456   4.358   2.926
 3386SOL    HW110177   4.515   4.332   2.850
 3386SOL    HW210178   4.428   4.454   2.915
 3387SOL     OW10179   4.031   3.787   2.480
 3387SOL    HW110180   4.020   3.881   2.513
 3387SOL    HW210181   4.026   3.724   2.557
 3388SOL     OW10182   4.747   4.490   2.828
 3388SOL    HW110183   4.762   4.511   2.924
 3388SOL    HW210184   4.717   4.395   2.819
 3389SOL     OW10185   4.074   4.622   3.666
 3389SOL    HW110186   4.150   4.666   3.714
 3389SOL    HW210187   4.109   4.575   3.584
 3390SOL     OW10188   4.792   5.057   2.711
 3390SOL    HW110189   4.799   4.973   2.656
 3390SOL    HW210190   4.854   5.126   2.675
 3391SOL     OW10191   4.043   4.534   2.811
 3391SOL    HW110192   4.136   4.570   2.816
 3391SOL    HW210193   4.037   4.449   2.863
 3392SOL     OW10194   4.063   4.233   2.868
 3392SOL    HW110195   4.011   4.150   2.851
 3392SOL    HW210196   4.140   4.238   2.804
 3393SOL     OW10197   4.726   4.520   3.100
 3393SOL    HW110198   4.767   4.488   3.186
 3393SOL    HW210199   4.630   4.493   3.097
 3394SOL     OW10200   3.764   4.268   2.976
 3394SOL    HW110201   3.849   4.235   2.935
 3394SOL    HW210202   3.777   4.283   3.074
 3395SOL     OW10203   3.913   4.244   3.584
 3395SOL    HW110204   3.972   4.204   3.514
 3395SOL    HW210205   3.855   4.315   3.543
 3396SOL     OW10206   4.539   4.296   2.187
 3396SOL    HW110207   4.546   4.207   2.141
 3396SOL    HW210208   4.445   4.330   2.179
 3397SOL     OW10209   4.395   4.188   3.131
 3397SOL    HW110210   4.361   4.099   3.101
 3397SOL    HW210211   4.421   4.242   3.051
 3398SOL     OW10212   4.197   4.224   2.053
 3398SOL    HW110213   4.258   4.304   2.057
 3398SOL    HW210214   4.102   4.255   2.060
 3399SOL     OW10215   3.883   4.861   3.328
 3399SOL    HW110216   3.905   4.800   3.404
 3399SOL    HW210217   3.893   4.812   3.242
 3400SOL     OW10218   5.026   4.579   2.171
 3400SOL    HW110219   4.940   4.548   2.213
 3400SOL    HW210220   5.022   4.565   2.072
 3401SOL     OW10221   4.627   3.810   1.995
 3401SOL    HW110222   4.678   3.811   1.909
 3401SOL    HW210223   4.683   3.768   2.066
 3402SOL     OW10224   3.987   4.050   2.582
 3402SOL    HW110225   3.908   4.101   2.548
 3402SOL    HW210226   3.978   4.035   2.680
 3403SOL     OW10227   4.763   4.822   2.558
 3403SOL    HW110228   4.693   4.775   2.612
 3403SOL    HW210229   4.822   4.754   2.515
 3404SOL     OW10230   3.829   4.737   3.588
 3404SOL    HW110231   3.752   4.704   3.642
 3404SOL    HW210232   3.914   4.707   3.630
 3405SOL     OW10233   4.396   3.927   3.351
 3405SOL    HW110234   4.486   3.911   3.311
 3405SOL    HW210235   4.404   3.932   3.450
 3406SOL     OW10236   3.799   4.069   1.895
 3406SOL    HW110237   3.707   4.041   1.866
 3406SOL    HW210238   3.830   4.146   1.839
 3407SOL     OW10239   3.796   3.890   2.180
 3407SOL    HW110240   3.779   3.973   2.126
 3407SOL    HW210241   3.886   3.853   2.158
 3408SOL     OW10242   4.337   4.566   3.293
 3408SOL    HW110243   4.393   4.647   3.276
 3408SOL    HW210244   4.396   4.486   3.296
 3409SOL     OW10245   4.440   4.289   3.570
 3409SOL    HW110246   4.459   4.354   3.644
 3409SOL    HW210247   4.500   4.209   3.579
 3410SOL     OW10248   4.949   4.049   2.311
 3410SOL    HW110249   5.014   3.975   2.300
 3410SOL    HW210250   4.969   4.099   2.395
 3411SOL     OW10251   4.318   4.469   2.514
 3411SOL    HW110252   4.368   4.554   2.495
 3411SOL    HW210253   4.230   4.471   2.466
 3412SOL     OW10254   4.583   4.680   2.723
 3412SOL    HW110255   4.637   4.611   2.771
 3412SOL    HW210256   4.551   4.749   2.789
 3413SOL     OW10257   4.152   4.148   2.382
 3413SOL    HW110258   4.182   4.076   2.320
 3413SOL    HW210259   4.113   4.108   2.465
 3414SOL     OW10260   4.041   4.271   3.142
 3414SOL    HW110261   4.079   4.212   3.214
 3414SOL    HW210262   4.081   4.245   3.054
 3415SOL     OW10263   4.725   3.758   3.016
 3415SOL    HW110264   4.662   3.686   2.985
 3415SOL    HW210265   4.818   3.722   3.016
 3416SOL     OW10266   3.954   4.352   3.837
 3416SOL    HW110267   3.861   4.350   3.874
 3416SOL    HW210268   3.955   4.313   3.745
 3417SOL     OW10269   3.949   3.999   4.720
 3417SOL    HW110270   3.984   3.982   4.812
 3417SOL    HW210271   3.861   3.954   4.708
 3418SOL     OW10272   3.743   4.092   4.371
 3418SOL    HW110273   3.661   4.135   4.410
 3418SOL    HW210274   3.715   4.019   4.308
 3419SOL     OW10275   4.409   4.736   4.389
 3419SOL    HW110276   4.478   4.720   4.459
 3419SOL    HW210277   4.336   4.793   4.427
 3420SOL     OW10278   3.846   4.367   4.287
 3420SOL    HW110279   3.801   4.279   4.304
 3420SOL    HW210280   3.845   4.421   4.371
 3421SOL     OW10281   4.337   5.089   4.450
 3421SOL    HW110282   4.288   5.002   4.459
 3421SOL    HW210283   4.314   5.132   4.363
 3422SOL     OW10284   4.533   3.728   4.226
 3422SOL    HW110285   4.573   3.819   4.217
 3422SOL    HW210286   4.433   3.736   4.232
 3423SOL     OW10287   4.322   4.453   3.994
 3423SOL    HW110288   4.346   4.522   3.926
 3423SOL    HW210289   4.244   4.486   4.048
 3424SOL     OW10290   3.800   4.535   4.513
 3424SOL    HW110291   3.899   4.523   4.522
 3424SOL    HW210292   3.776   4.630   4.534
 3425SOL     OW10293   4.589   4.072   3.919
 3425SOL    HW110294   4.648   4.135   3.870
 3425SOL    HW210295   4.608   3.978   3.890
 3426SOL     OW10296   4.106   4.424   4.204
 3426SOL    HW110297   4.151   4.334   4.201
 3426SOL    HW210298   4.012   4.413   4.237
 3427SOL     OW10299   4.338   3.846   3.841
 3427SOL    HW110300   4.436   3.824   3.848
 3427SOL    HW210301   4.307   3.829   3.748
 3428SOL     OW10302   4.646   4.227   4.623
 3428SOL    HW110303   4.621   4.218   4.527
 3428SOL    HW210304   4.694   4.145   4.654
 3429SOL     OW10305   4.263   3.788   4.236
 3429SOL    HW110306   4.182   3.789   4.294
 3429SOL    HW210307   4.266   3.871   4.181
 3430SOL     OW10308   4.021   3.759   3.895
 3430SOL    HW110309   4.070   3.843   3.874
 3430SOL    HW210310   4.083   3.694   3.940
 3431SOL     OW10311   4.741   3.763   4.477
 3431SOL    HW110312   4.669   3.768   4.408
 3431SOL    HW210313   4.717   3.694   4.546
 3432SOL     OW10314   4.251   3.980   4.052
 3432SOL    HW110315   4.278   3.921   3.977
 3432SOL    HW210316   4.251   4.075   4.021
 3433SOL     OW10317   4.290   4.261   4.589
 3433SOL    HW110318   4.302   4.327   4.515
 3433SOL    HW210319   4.336   4.295   4.672
 3434SOL     OW10320   4.297   4.594   4.753
 3434SOL    HW110321   4.341   4.683   4.744
 3434SOL    HW210322   4.234   4.594   4.830
 3435SOL     OW10323   4.933   4.249   3.999
 3435SOL    HW110324   4.946   4.165   4.053
 3435SOL    HW210325   4.904   4.323   4.059
 3436SOL     OW10326   4.456   4.358   4.788
 3436SOL    HW110327   4.515   4.332   4.712
 3436SOL    HW210328   4.428   4.454   4.777
 3437SOL     OW10329   4.031   3.787   4.342
 3437SOL    HW110330   4.020   3.881   4.375
 3437SOL    HW210331   4.026   3.724   4.419
 3438SOL     OW10332   4.747   4.490   4.690
 3438SOL    HW110333   4.762   4.511   4.786
 3438SOL    HW210334   4.717   4.395   4.681
 3439SOL     OW10335   4.792   5.057   4.573
 3439SOL    HW110336   4.799   4.973   4.518
 3439SOL    HW210337   4.854   5.126   4.537
 3440SOL     OW10338   4.043   4.534   4.673
 3440SOL    HW110339   4.136   4.570   4.678
 3440SOL    HW210340   4.037   4.449   4.725
 3441SOL     OW10341   4.726   4.520   4.962
 3441SOL    HW110342   4.767   4.488   5.048
 3441SOL    HW210343   4.630   4.493   4.959
 3442SOL     OW10344   4.539   4.296   4.049
 3442SOL    HW110345   4.546   4.207   4.003
 3442SOL    HW210346   4.445   4.330   4.041
 3443SOL     OW10347   4.197   4.224   3.915
 3443SOL    HW110348   4.258   4.304   3.919
 3443SOL    HW210349   4.102   4.255   3.922
 3444SOL     OW10350   5.026   4.579   4.033
 3444SOL    HW110351   4.940   4.548   4.075
 3444SOL    HW210352   5.022   4.565   3.934
 3445SOL     OW10353   4.627   3.810   3.857
 3445SOL    HW110354   4.678   3.811   3.771
 3445SOL    HW210355   4.683   3.768   3.928
 3446SOL     OW10356   3.987   4.050   4.444
 3446SOL    HW110357   3.908   4.101   4.410
 3446SOL    HW210358   3.978   4.035   4.542
 3447SOL     OW10359   4.763   4.822   4.420
 3447SOL    HW110360   4.693   4.775   4.474
 3447SOL    HW210361   4.822   4.754   4.377
 3448SOL     OW10362   3.799   4.069   3.757
 3448SOL    HW110363   3.707   4.041   3.728
 3448SOL    HW210364   3.830   4.146   3.701
 3449SOL     OW10365   3.796   3.890   4.042
 3449SOL    HW110366   3.779   3.973   3.988
 3449SOL    HW210367   3.886   3.853   4.020
 3450SOL     OW10368   4.949   4.049   4.173
 3450SOL    HW110369   5.014   3.975   4.162
 3450SOL    HW210370   4.969   4.099   4.257
 3451SOL     OW10371   4.318   4.469   4.376
 3451SOL    HW110372   4.368   4.554   4.357
 3451SOL    HW210373   4.230   4.471   4.328
 3452SOL     OW10374   4.583   4.680   4.585
 3452SOL    HW110375   4.637   4.611   4.633
 3452SOL    HW210376   4.551   4.749   4.651
 3453SOL     OW10377   4.152   4.148   4.244
 3453SOL    HW110378   4.182   4.076   4.182
 3453SOL    HW210379   4.113   4.108   4.327
   4.74374   4.74374   4.74374
