mobley_1770205_GMX.gro created by acpype (v: 2023.10.27) on Wed May 20 23:59:36 2026
14458
    1MOL     C1    1   2.307   3.058   2.521
    1MOL     C2    2   2.406   3.155   2.522
    1MOL     C3    3   2.341   2.923   2.532
    1MOL     C4    4   2.540   3.118   2.536
    1MOL     C5    5   2.476   2.888   2.545
    1MOL     C6    6   2.577   2.983   2.547
    1MOL     C7    7   2.519   2.749   2.557
    1MOL     C8    8   2.632   2.142   2.839
    1MOL     C9    9   3.028   2.371   2.761
    1MOL    C10   10   2.707   2.596   2.586
    1MOL     N1   11   2.712   2.951   2.560
    1MOL     N2   12   2.747   2.831   2.571
    1MOL     N3   13   2.655   2.730   2.570
    1MOL     O1   14   2.436   2.659   2.556
    1MOL     O2   15   2.672   2.277   2.859
    1MOL     O3   16   2.909   2.326   2.823
    1MOL     P1   17   2.767   2.348   2.748
    1MOL     S1   18   2.759   2.260   2.574
    1MOL     S2   19   2.724   2.554   2.761
    1MOL     H1   20   2.202   3.087   2.511
    1MOL     H2   21   2.380   3.260   2.514
    1MOL     H3   22   2.264   2.847   2.531
    1MOL     H4   23   2.618   3.195   2.537
    1MOL     H5   24   2.541   2.124   2.897
    1MOL     H6   25   2.711   2.075   2.875
    1MOL     H7   26   2.612   2.122   2.734
    1MOL     H8   27   3.105   2.383   2.837
    1MOL     H9   28   3.013   2.468   2.711
    1MOL    H10   29   3.062   2.297   2.688
    1MOL    H11   30   2.641   2.524   2.537
    1MOL    H12   31   2.805   2.589   2.537
    2SOL     OW   32   0.230   0.628   0.113
    2SOL    HW1   33   0.137   0.626   0.150
    2SOL    HW2   34   0.231   0.589   0.021
    3SOL     OW   35   0.225   0.275   0.996
    3SOL    HW1   36   0.260   0.258   1.088
    3SOL    HW2   37   0.137   0.230   0.984
    4SOL     OW   38   0.019   0.368   0.647
    4SOL    HW1   39  -0.063   0.411   0.686
    4SOL    HW2   40  -0.009   0.295   0.584
    5SOL     OW   41   0.569   1.275   1.165
    5SOL    HW1   42   0.476   1.268   1.128
    5SOL    HW2   43   0.580   1.364   1.209
    6SOL     OW   44   1.555   1.511   0.703
    6SOL    HW1   45   1.498   1.495   0.784
    6SOL    HW2   46   1.496   1.521   0.623
    7SOL     OW   47   1.135   0.703   0.717
    7SOL    HW1   48   1.192   0.781   0.692
    7SOL    HW2   49   1.075   0.729   0.793
    8SOL     OW   50   1.755   0.607   0.231
    8SOL    HW1   51   1.743   0.594   0.132
    8SOL    HW2   52   1.725   0.526   0.280
    9SOL     OW   53   0.768   1.144   1.023
    9SOL    HW1   54   0.690   1.161   1.083
    9SOL    HW2   55   0.802   1.231   0.987
   10SOL     OW   56   0.850   0.798   1.823
   10SOL    HW1   57   0.846   0.874   1.888
   10SOL    HW2   58   0.872   0.834   1.732
   11SOL     OW   59   0.685   1.012   0.665
   11SOL    HW1   60   0.754   0.996   0.735
   11SOL    HW2   61   0.612   1.069   0.703
   12SOL     OW   62   0.686   1.161   1.803
   12SOL    HW1   63   0.746   1.240   1.817
   12SOL    HW2   64   0.600   1.192   1.762
   13SOL     OW   65   0.335   1.435   1.061
   13SOL    HW1   66   0.257   1.404   1.008
   13SOL    HW2   67   0.393   1.493   1.004
   14SOL     OW   68   1.460   1.505   1.339
   14SOL    HW1   69   1.484   1.599   1.365
   14SOL    HW2   70   1.444   1.451   1.421
   15SOL     OW   71   0.438   0.392   1.499
   15SOL    HW1   72   0.520   0.336   1.508
   15SOL    HW2   73   0.357   0.334   1.503
   16SOL     OW   74   1.603   0.447   0.737
   16SOL    HW1   75   1.529   0.493   0.687
   16SOL    HW2   76   1.654   0.515   0.790
   17SOL     OW   77   0.231   1.713   0.483
   17SOL    HW1   78   0.265   1.790   0.537
   17SOL    HW2   79   0.275   1.713   0.393
   18SOL     OW   80   1.127   1.341   1.690
   18SOL    HW1   81   1.174   1.341   1.778
   18SOL    HW2   82   1.079   1.254   1.679
   19SOL     OW   83   0.230   1.434   0.538
   19SOL    HW1   84   0.204   1.530   0.538
   19SOL    HW2   85   0.159   1.380   0.583
   20SOL     OW   86   0.240   1.091   0.886
   20SOL    HW1   87   0.254   1.007   0.938
   20SOL    HW2   88   0.185   1.155   0.941
   21SOL     OW   89   0.620   1.786   1.439
   21SOL    HW1   90   0.528   1.769   1.474
   21SOL    HW2   91   0.648   1.878   1.465
   22SOL     OW   92   0.606   0.964   0.123
   22SOL    HW1   93   0.613   1.048   0.069
   22SOL    HW2   94   0.652   0.977   0.211
   23SOL     OW   95   1.594   0.114   1.480
   23SOL    HW1   96   1.576   0.181   1.408
   23SOL    HW2   97   1.591   0.160   1.569
   24SOL     OW   98   0.122   0.643   0.563
   24SOL    HW1   99   0.077   0.555   0.580
   24SOL    HW2  100   0.121   0.697   0.647
   25SOL     OW  101   1.842   1.767   0.359
   25SOL    HW1  102   1.896   1.738   0.439
   25SOL    HW2  103   1.872   1.857   0.330
   26SOL     OW  104   0.027   1.596   0.117
   26SOL    HW1  105   0.008   1.500   0.138
   26SOL    HW2  106  -0.006   1.654   0.192
   27SOL     OW  107   1.689   0.922   0.612
   27SOL    HW1  108   1.784   0.893   0.620
   27SOL    HW2  109   1.681   0.987   0.537
   28SOL     OW  110   1.641   1.108   0.432
   28SOL    HW1  111   1.727   1.110   0.380
   28SOL    HW2  112   1.655   1.155   0.520
   29SOL     OW  113   0.113   0.737   1.597
   29SOL    HW1  114   0.201   0.724   1.642
   29SOL    HW2  115   0.100   0.834   1.575
   30SOL     OW  116   0.613   1.365   0.726
   30SOL    HW1  117   0.564   1.278   0.735
   30SOL    HW2  118   0.590   1.408   0.639
   31SOL     OW  119   1.293   1.228   1.423
   31SOL    HW1  120   1.330   1.155   1.365
   31SOL    HW2  121   1.345   1.233   1.508
   32SOL     OW  122   0.809   0.004   0.502
   32SOL    HW1  123   0.849   0.095   0.493
   32SOL    HW2  124   0.709   0.012   0.508
   33SOL     OW  125   0.197   0.976   1.264
   33SOL    HW1  126   0.286   0.931   1.250
   33SOL    HW2  127   0.124   0.911   1.245
   34SOL     OW  128   1.525   0.999   0.190
   34SOL    HW1  129   1.462   0.923   0.203
   34SOL    HW2  130   1.573   1.017   0.276
   35SOL     OW  131   1.187   1.792   1.616
   35SOL    HW1  132   1.211   1.852   1.540
   35SOL    HW2  133   1.194   1.697   1.586
   36SOL     OW  134   0.317   0.251   1.801
   36SOL    HW1  135   0.388   0.322   1.807
   36SOL    HW2  136   0.229   0.290   1.829
   37SOL     OW  137   1.466   1.417   0.953
   37SOL    HW1  138   1.407   1.423   1.033
   37SOL    HW2  139   1.451   1.329   0.907
   38SOL     OW  140   1.667   1.714   0.572
   38SOL    HW1  141   1.626   1.691   0.484
   38SOL    HW2  142   1.649   1.640   0.637
   39SOL     OW  143   0.598   0.729   0.270
   39SOL    HW1  144   0.622   0.798   0.202
   39SOL    HW2  145   0.520   0.762   0.324
   40SOL     OW  146   1.281   0.345   0.944
   40SOL    HW1  147   1.195   0.295   0.931
   40SOL    HW2  148   1.343   0.291   1.000
   41SOL     OW  149   1.576   1.662   0.307
   41SOL    HW1  150   1.665   1.708   0.310
   41SOL    HW2  151   1.555   1.638   0.212
   42SOL     OW  152   0.807   0.605   1.465
   42SOL    HW1  153   0.760   0.602   1.554
   42SOL    HW2  154   0.756   0.550   1.399
   43SOL     OW  155   1.394   0.469   1.674
   43SOL    HW1  156   1.374   0.512   1.762
   43SOL    HW2  157   1.472   0.407   1.683
   44SOL     OW  158   0.973   0.890   1.572
   44SOL    HW1  159   1.019   0.806   1.543
   44SOL    HW2  160   0.917   0.924   1.497
   45SOL     OW  161   0.991   0.410   1.242
   45SOL    HW1  162   0.914   0.444   1.296
   45SOL    HW2  163   0.957   0.359   1.163
   46SOL     OW  164   1.041   0.701   0.429
   46SOL    HW1  165   1.067   0.697   0.525
   46SOL    HW2  166   0.956   0.650   0.415
   47SOL     OW  167   0.076   0.811   0.789
   47SOL    HW1  168   0.175   0.799   0.798
   47SOL    HW2  169   0.052   0.906   0.810
   48SOL     OW  170   0.130   1.821   1.571
   48SOL    HW1  171   0.120   1.806   1.670
   48SOL    HW2  172   0.044   1.857   1.535
   49SOL     OW  173   0.865   0.348   0.195
   49SOL    HW1  174   0.924   0.411   0.146
   49SOL    HW2  175   0.884   0.254   0.166
   50SOL     OW  176   1.719   0.585   1.831
   50SOL    HW1  177   1.693   0.674   1.795
   50SOL    HW2  178   1.717   0.517   1.758
   51SOL     OW  179   1.362   1.144   0.545
   51SOL    HW1  180   1.445   1.115   0.497
   51SOL    HW2  181   1.313   1.211   0.489
   52SOL     OW  182   0.550   0.196   0.885
   52SOL    HW1  183   0.545   0.191   0.985
   52SOL    HW2  184   0.552   0.292   0.856
   53SOL     OW  185   1.008   1.456   0.477
   53SOL    HW1  186   0.962   1.528   0.425
   53SOL    HW2  187   1.004   1.476   0.575
   54SOL     OW  188   0.351   1.801   0.853
   54SOL    HW1  189   0.401   1.715   0.859
   54SOL    HW2  190   0.416   1.878   0.850
   55SOL     OW  191   1.795   1.066   0.873
   55SOL    HW1  192   1.733   1.051   0.797
   55SOL    HW2  193   1.743   1.077   0.958
   56SOL     OW  194   1.227   1.550   1.506
   56SOL    HW1  195   1.233   1.473   1.570
   56SOL    HW2  196   1.175   1.524   1.426
   57SOL     OW  197   0.321   0.943   0.242
   57SOL    HW1  198   0.403   0.982   0.200
   57SOL    HW2  199   0.294   0.861   0.193
   58SOL     OW  200   1.458   0.735   0.728
   58SOL    HW1  201   1.453   0.670   0.803
   58SOL    HW2  202   1.538   0.794   0.741
   59SOL     OW  203   0.461   1.266   1.727
   59SOL    HW1  204   0.411   1.267   1.641
   59SOL    HW2  205   0.398   1.248   1.803
   60SOL     OW  206   1.111   1.776   0.237
   60SOL    HW1  207   1.051   1.714   0.287
   60SOL    HW2  208   1.142   1.732   0.152
   61SOL     OW  209   0.202   0.285   1.498
   61SOL    HW1  210   0.122   0.345   1.485
   61SOL    HW2  211   0.192   0.236   1.584
   62SOL     OW  212   1.632   1.377   0.081
   62SOL    HW1  213   1.600   1.471   0.071
   62SOL    HW2  214   1.556   1.314   0.069
   63SOL     OW  215   0.464   1.743   0.323
   63SOL    HW1  216   0.497   1.782   0.409
   63SOL    HW2  217   0.540   1.736   0.258
   64SOL     OW  218   1.400   0.107   0.426
   64SOL    HW1  219   1.376   0.070   0.336
   64SOL    HW2  220   1.499   0.123   0.430
   65SOL     OW  221   0.249   1.785   1.241
   65SOL    HW1  222   0.306   1.720   1.291
   65SOL    HW2  223   0.233   1.752   1.148
   66SOL     OW  224   0.940   1.698   0.904
   66SOL    HW1  225   1.020   1.641   0.925
   66SOL    HW2  226   0.891   1.658   0.827
   67SOL     OW  227   0.382   0.700   0.480
   67SOL    HW1  228   0.427   0.610   0.477
   67SOL    HW2  229   0.288   0.689   0.513
   68SOL     OW  230   1.547   0.222   1.729
   68SOL    HW1  231   1.542   0.259   1.821
   68SOL    HW2  232   1.475   0.153   1.717
   69SOL     OW  233   0.614   0.122   0.117
   69SOL    HW1  234   0.712   0.100   0.124
   69SOL    HW2  235   0.583   0.105   0.024
   70SOL     OW  236   0.781   0.264   1.749
   70SOL    HW1  237   0.848   0.203   1.792
   70SOL    HW2  238   0.708   0.283   1.814
   71SOL     OW  239   0.888   1.514   1.195
   71SOL    HW1  240   0.865   1.489   1.101
   71SOL    HW2  241   0.949   1.445   1.234
   72SOL     OW  242   1.351   0.590   1.433
   72SOL    HW1  243   1.379   0.547   1.518
   72SOL    HW2  244   1.376   0.686   1.434
   73SOL     OW  245   0.803   1.402   0.924
   73SOL    HW1  246   0.893   1.416   0.882
   73SOL    HW2  247   0.732   1.404   0.853
   74SOL     OW  248   0.922   0.503   0.899
   74SOL    HW1  249   0.897   0.494   0.803
   74SOL    HW2  250   0.970   0.421   0.930
   75SOL     OW  251   0.539   0.064   0.512
   75SOL    HW1  252   0.458   0.065   0.570
   75SOL    HW2  253   0.542   0.147   0.457
   76SOL     OW  254   1.434   1.188   0.041
   76SOL    HW1  255   1.466   1.112   0.098
   76SOL    HW2  256   1.342   1.215   0.071
   77SOL     OW  257   0.297   0.035   0.171
   77SOL    HW1  258   0.346   0.119   0.150
   77SOL    HW2  259   0.359  -0.030   0.216
   78SOL     OW  260   0.935   0.236   0.480
   78SOL    HW1  261   0.887   0.277   0.402
   78SOL    HW2  262   1.034   0.234   0.461
   79SOL     OW  263   1.076   0.683   1.464
   79SOL    HW1  264   0.996   0.622   1.467
   79SOL    HW2  265   1.157   0.630   1.440
   80SOL     OW  266   1.227   1.570   0.793
   80SOL    HW1  267   1.248   1.644   0.728
   80SOL    HW2  268   1.295   1.570   0.866
   81SOL     OW  269   0.459   1.152   0.741
   81SOL    HW1  270   0.388   1.125   0.806
   81SOL    HW2  271   0.433   1.124   0.648
   82SOL     OW  272   1.271   1.797   0.591
   82SOL    HW1  273   1.315   1.861   0.527
   82SOL    HW2  274   1.221   1.849   0.661
   83SOL     OW  275   1.032   0.549   0.016
   83SOL    HW1  276   0.991   0.631  -0.023
   83SOL    HW2  277   1.096   0.575   0.089
   84SOL     OW  278   0.078   0.556   1.386
   84SOL    HW1  279   0.170   0.555   1.345
   84SOL    HW2  280   0.072   0.630   1.453
   85SOL     OW  281   0.561   0.222   1.147
   85SOL    HW1  282   0.599   0.138   1.184
   85SOL    HW2  283   0.473   0.241   1.191
   86SOL     OW  284   0.866   0.454   0.642
   86SOL    HW1  285   0.834   0.526   0.580
   86SOL    HW2  286   0.890   0.373   0.589
   87SOL     OW  287   1.017   0.039   0.753
   87SOL    HW1  288   0.945   0.044   0.684
   87SOL    HW2  289   0.993  -0.030   0.822
   88SOL     OW  290   1.429   1.173   0.867
   88SOL    HW1  291   1.374   1.089   0.860
   88SOL    HW2  292   1.455   1.202   0.775
   89SOL     OW  293   1.466   0.590   0.992
   89SOL    HW1  294   1.436   0.495   0.999
   89SOL    HW2  295   1.539   0.606   1.058
   90SOL     OW  296   1.857   0.833   0.377
   90SOL    HW1  297   1.899   0.769   0.441
   90SOL    HW2  298   1.819   0.782   0.299
   91SOL     OW  299   0.488   1.385   0.174
   91SOL    HW1  300   0.401   1.370   0.221
   91SOL    HW2  301   0.471   1.411   0.079
   92SOL     OW  302   1.664   1.280   0.657
   92SOL    HW1  303   1.763   1.288   0.671
   92SOL    HW2  304   1.619   1.364   0.688
   93SOL     OW  305   1.390   0.575   0.078
   93SOL    HW1  306   1.336   0.554   0.159
   93SOL    HW2  307   1.481   0.534   0.087
   94SOL     OW  308   0.527   0.256   0.328
   94SOL    HW1  309   0.554   0.197   0.253
   94SOL    HW2  310   0.527   0.351   0.297
   95SOL     OW  311   1.754   1.223   1.588
   95SOL    HW1  312   1.845   1.184   1.575
   95SOL    HW2  313   1.762   1.319   1.612
   96SOL     OW  314   1.064   1.347   1.340
   96SOL    HW1  315   0.984   1.324   1.395
   96SOL    HW2  316   1.147   1.321   1.389
   97SOL     OW  317   1.592   1.629   1.625
   97SOL    HW1  318   1.619   1.663   1.535
   97SOL    HW2  319   1.671   1.591   1.671
   98SOL     OW  320   1.111   1.195   1.100
   98SOL    HW1  321   1.071   1.239   1.181
   98SOL    HW2  322   1.070   1.232   1.017
   99SOL     OW  323   1.638   1.099   1.079
   99SOL    HW1  324   1.643   1.180   1.138
   99SOL    HW2  325   1.552   1.101   1.028
  100SOL     OW  326   0.915   0.089   1.402
  100SOL    HW1  327   0.940   0.069   1.307
  100SOL    HW2  328   0.987   0.145   1.444
  101SOL     OW  329   0.980   1.116   1.719
  101SOL    HW1  330   0.881   1.122   1.729
  101SOL    HW2  331   1.003   1.036   1.663
  102SOL     OW  332   0.705   1.050   0.368
  102SOL    HW1  333   0.691   1.057   0.467
  102SOL    HW2  334   0.789   0.999   0.350
  103SOL     OW  335   0.410   0.813   1.251
  103SOL    HW1  336   0.496   0.825   1.301
  103SOL    HW2  337   0.368   0.726   1.278
  104SOL     OW  338   1.274   0.386   1.262
  104SOL    HW1  339   1.295   0.460   1.326
  104SOL    HW2  340   1.185   0.403   1.219
  105SOL     OW  341   0.064   1.564   1.331
  105SOL    HW1  342   0.018   1.646   1.297
  105SOL    HW2  343   0.162   1.583   1.340
  106SOL     OW  344   0.367   1.100   0.501
  106SOL    HW1  345   0.360   1.183   0.445
  106SOL    HW2  346   0.371   1.020   0.441
  107SOL     OW  347   0.566   0.537   0.865
  107SOL    HW1  348   0.578   0.603   0.791
  107SOL    HW2  349   0.612   0.571   0.948
  108SOL     OW  350   1.252   1.348   0.388
  108SOL    HW1  351   1.302   1.425   0.428
  108SOL    HW2  352   1.157   1.350   0.420
  109SOL     OW  353   1.272   1.445   1.142
  109SOL    HW1  354   1.319   1.458   1.229
  109SOL    HW2  355   1.206   1.371   1.151
  110SOL     OW  356   1.582   0.639   0.472
  110SOL    HW1  357   1.551   0.700   0.545
  110SOL    HW2  358   1.632   0.691   0.403
  111SOL     OW  359   0.354   1.510   1.329
  111SOL    HW1  360   0.333   1.466   1.242
  111SOL    HW2  361   0.451   1.536   1.332
  112SOL     OW  362   0.402   0.751   1.598
  112SOL    HW1  363   0.470   0.806   1.551
  112SOL    HW2  364   0.442   0.663   1.625
  113SOL     OW  365   1.587   0.779   1.670
  113SOL    HW1  366   1.495   0.817   1.665
  113SOL    HW2  367   1.647   0.826   1.605
  114SOL     OW  368   1.013   0.105   1.770
  114SOL    HW1  369   1.019   0.190   1.718
  114SOL    HW2  370   1.045   0.029   1.713
  115SOL     OW  371   0.504   0.050   1.740
  115SOL    HW1  372   0.462  -0.007   1.670
  115SOL    HW2  373   0.438   0.119   1.772
  116SOL     OW  374   0.573   0.870   1.029
  116SOL    HW1  375   0.617   0.959   1.020
  116SOL    HW2  376   0.510   0.870   1.106
  117SOL     OW  377   1.360   0.862   1.045
  117SOL    HW1  378   1.285   0.862   0.979
  117SOL    HW2  379   1.397   0.770   1.054
  118SOL     OW  380   1.209   0.525   0.275
  118SOL    HW1  381   1.222   0.441   0.329
  118SOL    HW2  382   1.180   0.599   0.335
  119SOL     OW  383   0.307   0.213   1.231
  119SOL    HW1  384   0.284   0.250   1.321
  119SOL    HW2  385   0.277   0.118   1.225
  120SOL     OW  386   0.037   1.310   1.282
  120SOL    HW1  387   0.090   1.261   1.350
  120SOL    HW2  388   0.059   1.408   1.287
  121SOL     OW  389   0.732   0.634   1.064
  121SOL    HW1  390   0.791   0.608   0.988
  121SOL    HW2  391   0.704   0.730   1.053
  122SOL     OW  392   1.728   0.935   1.854
  122SOL    HW1  393   1.682   0.928   1.765
  122SOL    HW2  394   1.666   0.979   1.920
  123SOL     OW  395   0.307   0.063   0.618
  123SOL    HW1  396   0.296   0.157   0.651
  123SOL    HW2  397   0.302   0.000   0.695
  124SOL     OW  398   1.622   0.367   0.374
  124SOL    HW1  399   1.624   0.291   0.438
  124SOL    HW2  400   1.574   0.444   0.414
  125SOL     OW  401   1.023   0.766   0.966
  125SOL    HW1  402   1.038   0.787   1.062
  125SOL    HW2  403   0.993   0.671   0.957
  126SOL     OW  404   0.980   1.573   1.700
  126SOL    HW1  405   0.960   1.617   1.612
  126SOL    HW2  406   1.019   1.482   1.684
  127SOL     OW  407   1.859   1.518   1.605
  127SOL    HW1  408   1.873   1.545   1.510
  127SOL    HW2  409   1.942   1.540   1.658
  128SOL     OW  410   0.350   0.898   1.804
  128SOL    HW1  411   0.426   0.942   1.852
  128SOL    HW2  412   0.385   0.851   1.722
  129SOL     OW  413   1.540   0.274   0.125
  129SOL    HW1  414   1.479   0.199   0.148
  129SOL    HW2  415   1.562   0.326   0.208
  130SOL     OW  416   1.303   0.838   0.042
  130SOL    HW1  417   1.337   0.745   0.057
  130SOL    HW2  418   1.321   0.865  -0.053
  131SOL     OW  419   1.068   1.333   0.849
  131SOL    HW1  420   1.075   1.249   0.794
  131SOL    HW2  421   1.130   1.402   0.813
  132SOL     OW  422   0.319   0.810   0.949
  132SOL    HW1  423   0.412   0.846   0.954
  132SOL    HW2  424   0.313   0.725   1.001
  133SOL     OW  425   0.339   0.509   1.006
  133SOL    HW1  426   0.287   0.426   0.989
  133SOL    HW2  427   0.416   0.514   0.942
  134SOL     OW  428   1.138   0.380   1.678
  134SOL    HW1  429   1.093   0.443   1.742
  134SOL    HW2  430   1.231   0.411   1.661
  135SOL     OW  431   1.160   0.207   1.477
  135SOL    HW1  432   1.160   0.271   1.554
  135SOL    HW2  433   1.188   0.255   1.394
  136SOL     OW  434   0.008   1.326   0.200
  136SOL    HW1  435  -0.085   1.347   0.169
  136SOL    HW2  436   0.018   1.227   0.213
  137SOL     OW  437   0.088   1.801   0.927
  137SOL    HW1  438   0.046   1.715   0.900
  137SOL    HW2  439   0.182   1.804   0.893
  138SOL     OW  440   0.504   1.568   0.910
  138SOL    HW1  441   0.570   1.642   0.919
  138SOL    HW2  442   0.548   1.489   0.868
  139SOL     OW  443   1.002   0.796   1.238
  139SOL    HW1  444   1.043   0.764   1.324
  139SOL    HW2  445   0.906   0.769   1.235
  140SOL     OW  446   0.040   0.544   1.114
  140SOL    HW1  447   0.125   0.511   1.073
  140SOL    HW2  448   0.053   0.559   1.212
  141SOL     OW  449   0.189   0.520   1.722
  141SOL    HW1  450   0.248   0.480   1.652
  141SOL    HW2  451   0.131   0.591   1.681
  142SOL     OW  452   1.369   0.950   1.660
  142SOL    HW1  453   1.408   1.039   1.680
  142SOL    HW2  454   1.379   0.930   1.563
  143SOL     OW  455   0.815   0.572   0.325
  143SOL    HW1  456   0.822   0.483   0.279
  143SOL    HW2  457   0.721   0.606   0.317
  144SOL     OW  458   1.657   0.604   1.206
  144SOL    HW1  459   1.619   0.535   1.268
  144SOL    HW2  460   1.739   0.568   1.162
  145SOL     OW  461   0.252   1.564   1.744
  145SOL    HW1  462   0.222   1.621   1.820
  145SOL    HW2  463   0.245   1.467   1.770
  146SOL     OW  464   0.671   0.464   1.269
  146SOL    HW1  465   0.637   0.375   1.239
  146SOL    HW2  466   0.697   0.518   1.189
  147SOL     OW  467   0.930   1.678   1.465
  147SOL    HW1  468   0.906   1.660   1.370
  147SOL    HW2  469   0.960   1.772   1.475
  148SOL     OW  470   0.473   0.500   0.191
  148SOL    HW1  471   0.534   0.580   0.195
  148SOL    HW2  472   0.378   0.531   0.198
  149SOL     OW  473   0.159   1.137   1.466
  149SOL    HW1  474   0.181   1.076   1.542
  149SOL    HW2  475   0.169   1.088   1.380
  150SOL     OW  476   1.347   1.059   1.234
  150SOL    HW1  477   1.371   0.996   1.160
  150SOL    HW2  478   1.257   1.099   1.216
  151SOL     OW  479   1.302   0.855   0.309
  151SOL    HW1  480   1.216   0.824   0.351
  151SOL    HW2  481   1.298   0.841   0.210
  152SOL     OW  482   1.759   1.747   1.154
  152SOL    HW1  483   1.820   1.777   1.081
  152SOL    HW2  484   1.721   1.658   1.132
  153SOL     OW  485   1.252   1.731   1.128
  153SOL    HW1  486   1.336   1.736   1.074
  153SOL    HW2  487   1.229   1.635   1.146
  154SOL     OW  488   0.083   1.258   1.022
  154SOL    HW1  489   0.078   1.257   1.122
  154SOL    HW2  490   0.000   1.217   0.984
  155SOL     OW  491   0.688   1.662   1.716
  155SOL    HW1  492   0.632   1.743   1.725
  155SOL    HW2  493   0.740   1.666   1.630
  156SOL     OW  494   0.903   0.086   0.133
  156SOL    HW1  495   0.954   0.087   0.047
  156SOL    HW2  496   0.959   0.044   0.204
  157SOL     OW  497   1.726   0.135   0.523
  157SOL    HW1  498   1.799   0.118   0.456
  157SOL    HW2  499   1.695   0.048   0.561
  158SOL     OW  500   1.388   1.573   0.477
  158SOL    HW1  501   1.455   1.585   0.403
  158SOL    HW2  502   1.348   1.662   0.500
  159SOL     OW  503   0.130   1.794   1.851
  159SOL    HW1  504   0.089   1.720   1.904
  159SOL    HW2  505   0.194   1.845   1.909
  160SOL     OW  506   1.280   0.927   0.672
  160SOL    HW1  507   1.340   0.846   0.674
  160SOL    HW2  508   1.320   0.996   0.612
  161SOL     OW  509   0.830   1.273   1.422
  161SOL    HW1  510   0.825   1.306   1.517
  161SOL    HW2  511   0.744   1.292   1.376
  162SOL     OW  512   0.672   1.616   0.154
  162SOL    HW1  513   0.681   1.626   0.055
  162SOL    HW2  514   0.632   1.527   0.175
  163SOL     OW  515   1.650   1.720   1.394
  163SOL    HW1  516   1.703   1.730   1.310
  163SOL    HW2  517   1.623   1.810   1.428
  164SOL     OW  518   1.841   0.175   0.963
  164SOL    HW1  519   1.880   0.090   0.927
  164SOL    HW2  520   1.743   0.177   0.944
  165SOL     OW  521   0.263   0.326   0.720
  165SOL    HW1  522   0.184   0.377   0.686
  165SOL    HW2  523   0.254   0.311   0.818
  166SOL     OW  524   1.194   1.612   0.031
  166SOL    HW1  525   1.200   1.519   0.068
  166SOL    HW2  526   1.135   1.612  -0.049
  167SOL     OW  527   0.822   1.002   1.372
  167SOL    HW1  528   0.862   1.001   1.280
  167SOL    HW2  529   0.832   1.094   1.412
  168SOL     OW  530   0.916   0.910   0.291
  168SOL    HW1  531   0.979   0.948   0.223
  168SOL    HW2  532   0.956   0.827   0.330
  169SOL     OW  533   1.504   1.607   0.044
  169SOL    HW1  534   1.412   1.644   0.051
  169SOL    HW2  535   1.542   1.627  -0.046
  170SOL     OW  536   0.372   1.288   1.490
  170SOL    HW1  537   0.359   1.381   1.456
  170SOL    HW2  538   0.288   1.236   1.477
  171SOL     OW  539   1.614   1.292   1.289
  171SOL    HW1  540   1.674   1.295   1.369
  171SOL    HW2  541   1.539   1.356   1.302
  172SOL     OW  542   1.039   1.098   0.696
  172SOL    HW1  543   0.969   1.051   0.750
  172SOL    HW2  544   1.098   1.030   0.653
  173SOL     OW  545   1.014   0.236   0.971
  173SOL    HW1  546   1.006   0.200   0.878
  173SOL    HW2  547   1.012   0.160   1.036
  174SOL     OW  548   0.590   1.487   0.491
  174SOL    HW1  549   0.632   1.429   0.421
  174SOL    HW2  550   0.546   1.566   0.447
  175SOL     OW  551   1.709   0.385   1.381
  175SOL    HW1  552   1.782   0.454   1.385
  175SOL    HW2  553   1.737   0.310   1.322
  176SOL     OW  554   0.255   1.348   0.290
  176SOL    HW1  555   0.159   1.349   0.263
  176SOL    HW2  556   0.267   1.401   0.374
  177SOL     OW  557   0.105   1.013   1.726
  177SOL    HW1  558   0.028   0.980   1.780
  177SOL    HW2  559   0.190   0.983   1.768
  178SOL     OW  560   0.672   0.203   1.489
  178SOL    HW1  561   0.762   0.187   1.449
  178SOL    HW2  562   0.680   0.208   1.588
  179SOL     OW  563   0.075   0.345   0.033
  179SOL    HW1  564  -0.017   0.317   0.004
  179SOL    HW2  565   0.106   0.422  -0.023
  180SOL     OW  566   1.440   0.856   1.398
  180SOL    HW1  567   1.383   0.908   1.335
  180SOL    HW2  568   1.536   0.868   1.374
  181SOL     OW  569   0.072   0.166   0.318
  181SOL    HW1  570   0.055   0.249   0.264
  181SOL    HW2  571   0.162   0.129   0.296
  182SOL     OW  572   1.183   1.335   0.119
  182SOL    HW1  573   1.084   1.324   0.121
  182SOL    HW2  574   1.217   1.350   0.212
  183SOL     OW  575   0.613   0.842   1.431
  183SOL    HW1  576   0.669   0.923   1.414
  183SOL    HW2  577   0.672   0.762   1.434
  184SOL     OW  578   1.493   1.767   0.959
  184SOL    HW1  579   1.526   1.831   0.890
  184SOL    HW2  580   1.559   1.761   1.034
  185SOL     OW  581   0.716   0.565   1.708
  185SOL    HW1  582   0.735   0.630   1.782
  185SOL    HW2  583   0.776   0.485   1.717
  186SOL     OW  584   1.450   1.220   1.633
  186SOL    HW1  585   1.441   1.210   1.732
  186SOL    HW2  586   1.546   1.213   1.607
  187SOL     OW  587   0.390   1.741   1.560
  187SOL    HW1  588   0.299   1.782   1.558
  187SOL    HW2  589   0.383   1.647   1.592
  188SOL     OW  590   1.674   0.883   1.254
  188SOL    HW1  591   1.647   0.794   1.217
  188SOL    HW2  592   1.675   0.951   1.181
  189SOL     OW  593   1.225   0.325   0.449
  189SOL    HW1  594   1.290   0.251   0.438
  189SOL    HW2  595   1.245   0.375   0.533
  190SOL     OW  596   0.594   0.745   0.652
  190SOL    HW1  597   0.644   0.830   0.633
  190SOL    HW2  598   0.506   0.747   0.604
  191SOL     OW  599   1.777   0.342   1.642
  191SOL    HW1  600   1.760   0.373   1.548
  191SOL    HW2  601   1.693   0.305   1.680
  192SOL     OW  602   1.730   0.934   1.517
  192SOL    HW1  603   1.768   1.025   1.532
  192SOL    HW2  604   1.722   0.917   1.418
  193SOL     OW  605   0.859   1.374   0.016
  193SOL    HW1  606   0.813   1.389   0.104
  193SOL    HW2  607   0.903   1.459  -0.014
  194SOL     OW  608   0.661   1.790   0.953
  194SOL    HW1  609   0.615   1.878   0.940
  194SOL    HW2  610   0.760   1.802   0.946
  195SOL     OW  611   0.859   0.956   0.861
  195SOL    HW1  612   0.913   0.887   0.909
  195SOL    HW2  613   0.827   1.025   0.927
  196SOL     OW  614   1.083   0.984   0.087
  196SOL    HW1  615   1.060   1.037   0.005
  196SOL    HW2  616   1.164   0.928   0.068
  197SOL     OW  617   1.861   1.569   0.851
  197SOL    HW1  618   1.790   1.557   0.781
  197SOL    HW2  619   1.862   1.490   0.911
  198SOL     OW  620   0.221   1.314   1.844
  198SOL    HW1  621   0.156   1.241   1.823
  198SOL    HW2  622   0.225   1.328   1.942
  199SOL     OW  623   0.079   1.240   0.653
  199SOL    HW1  624   0.078   1.193   0.741
  199SOL    HW2  625   0.161   1.212   0.602
  200SOL     OW  626   0.672   1.391   1.624
  200SOL    HW1  627   0.594   1.341   1.662
  200SOL    HW2  628   0.669   1.486   1.655
  201SOL     OW  629   1.824   0.192   1.227
  201SOL    HW1  630   1.820   0.102   1.271
  201SOL    HW2  631   1.827   0.181   1.128
  202SOL     OW  632   0.428   0.424   0.520
  202SOL    HW1  633   0.458   0.352   0.458
  202SOL    HW2  634   0.389   0.384   0.603
  203SOL     OW  635   1.705   1.487   1.104
  203SOL    HW1  636   1.612   1.462   1.077
  203SOL    HW2  637   1.731   1.437   1.186
  204SOL     OW  638   0.317   0.547   1.280
  204SOL    HW1  639   0.355   0.488   1.352
  204SOL    HW2  640   0.357   0.521   1.192
  205SOL     OW  641   0.812   1.586   0.687
  205SOL    HW1  642   0.844   1.596   0.593
  205SOL    HW2  643   0.733   1.524   0.689
  206SOL     OW  644   1.424   0.214   1.112
  206SOL    HW1  645   1.476   0.149   1.167
  206SOL    HW2  646   1.375   0.277   1.173
  207SOL     OW  647   1.001   0.034   1.154
  207SOL    HW1  648   0.938  -0.038   1.123
  207SOL    HW2  649   1.094  -0.002   1.154
  208SOL     OW  650   0.770   1.330   0.301
  208SOL    HW1  651   0.724   1.243   0.318
  208SOL    HW2  652   0.861   1.327   0.342
  209SOL     OW  653   0.618   1.567   1.284
  209SOL    HW1  654   0.613   1.649   1.341
  209SOL    HW2  655   0.707   1.564   1.239
  210SOL     OW  656   1.352   0.052   0.168
  210SOL    HW1  657   1.387   0.011   0.084
  210SOL    HW2  658   1.262   0.014   0.188
  211SOL     OW  659   1.300   0.453   0.691
  211SOL    HW1  660   1.241   0.533   0.695
  211SOL    HW2  661   1.315   0.418   0.784
  212SOL     OW  662   1.593   0.221   0.882
  212SOL    HW1  663   1.509   0.220   0.936
  212SOL    HW2  664   1.595   0.304   0.826
  213SOL     OW  665   0.039   1.077   0.300
  213SOL    HW1  666   0.138   1.066   0.291
  213SOL    HW2  667  -0.001   0.991   0.332
  214SOL     OW  668   0.875   1.646   0.337
  214SOL    HW1  669   0.798   1.611   0.283
  214SOL    HW2  670   0.843   1.717   0.399
  215SOL     OW  671   0.230   0.628   1.975
  215SOL    HW1  672   0.137   0.626   2.012
  215SOL    HW2  673   0.231   0.589   1.883
  216SOL     OW  674   0.225   0.275   2.858
  216SOL    HW1  675   0.260   0.258   2.950
  216SOL    HW2  676   0.137   0.230   2.846
  217SOL     OW  677   0.019   0.368   2.509
  217SOL    HW1  678  -0.063   0.411   2.548
  217SOL    HW2  679  -0.009   0.295   2.446
  218SOL     OW  680   0.569   1.275   3.027
  218SOL    HW1  681   0.476   1.268   2.990
  218SOL    HW2  682   0.580   1.364   3.071
  219SOL     OW  683   1.555   1.511   2.565
  219SOL    HW1  684   1.498   1.495   2.646
  219SOL    HW2  685   1.496   1.521   2.485
  220SOL     OW  686   1.135   0.703   2.579
  220SOL    HW1  687   1.192   0.781   2.554
  220SOL    HW2  688   1.075   0.729   2.655
  221SOL     OW  689   1.755   0.607   2.093
  221SOL    HW1  690   1.743   0.594   1.994
  221SOL    HW2  691   1.725   0.526   2.142
  222SOL     OW  692   0.768   1.144   2.885
  222SOL    HW1  693   0.690   1.161   2.945
  222SOL    HW2  694   0.802   1.231   2.849
  223SOL     OW  695   0.850   0.798   3.685
  223SOL    HW1  696   0.846   0.874   3.750
  223SOL    HW2  697   0.872   0.834   3.594
  224SOL     OW  698   0.685   1.012   2.527
  224SOL    HW1  699   0.754   0.996   2.597
  224SOL    HW2  700   0.612   1.069   2.565
  225SOL     OW  701   0.686   1.161   3.665
  225SOL    HW1  702   0.746   1.240   3.679
  225SOL    HW2  703   0.600   1.192   3.624
  226SOL     OW  704   0.335   1.435   2.923
  226SOL    HW1  705   0.257   1.404   2.870
  226SOL    HW2  706   0.393   1.493   2.866
  227SOL     OW  707   1.460   1.505   3.201
  227SOL    HW1  708   1.484   1.599   3.227
  227SOL    HW2  709   1.444   1.451   3.283
  228SOL     OW  710   0.438   0.392   3.361
  228SOL    HW1  711   0.520   0.336   3.370
  228SOL    HW2  712   0.357   0.334   3.365
  229SOL     OW  713   1.603   0.447   2.599
  229SOL    HW1  714   1.529   0.493   2.549
  229SOL    HW2  715   1.654   0.515   2.652
  230SOL     OW  716   0.231   1.713   2.345
  230SOL    HW1  717   0.265   1.790   2.399
  230SOL    HW2  718   0.275   1.713   2.255
  231SOL     OW  719   1.127   1.341   3.552
  231SOL    HW1  720   1.174   1.341   3.640
  231SOL    HW2  721   1.079   1.254   3.541
  232SOL     OW  722   0.230   1.434   2.400
  232SOL    HW1  723   0.204   1.530   2.400
  232SOL    HW2  724   0.159   1.380   2.445
  233SOL     OW  725   0.240   1.091   2.748
  233SOL    HW1  726   0.254   1.007   2.800
  233SOL    HW2  727   0.185   1.155   2.803
  234SOL     OW  728   0.620   1.786   3.301
  234SOL    HW1  729   0.528   1.769   3.336
  234SOL    HW2  730   0.648   1.878   3.327
  235SOL     OW  731   0.606   0.964   1.985
  235SOL    HW1  732   0.613   1.048   1.931
  235SOL    HW2  733   0.652   0.977   2.073
  236SOL     OW  734   1.594   0.114   3.342
  236SOL    HW1  735   1.576   0.181   3.270
  236SOL    HW2  736   1.591   0.160   3.431
  237SOL     OW  737   0.122   0.643   2.425
  237SOL    HW1  738   0.077   0.555   2.442
  237SOL    HW2  739   0.121   0.697   2.509
  238SOL     OW  740   1.842   1.767   2.221
  238SOL    HW1  741   1.896   1.738   2.301
  238SOL    HW2  742   1.872   1.857   2.192
  239SOL     OW  743   0.027   1.596   1.979
  239SOL    HW1  744   0.008   1.500   2.000
  239SOL    HW2  745  -0.006   1.654   2.054
  240SOL     OW  746   1.689   0.922   2.474
  240SOL    HW1  747   1.784   0.893   2.482
  240SOL    HW2  748   1.681   0.987   2.399
  241SOL     OW  749   1.641   1.108   2.294
  241SOL    HW1  750   1.727   1.110   2.242
  241SOL    HW2  751   1.655   1.155   2.382
  242SOL     OW  752   0.113   0.737   3.459
  242SOL    HW1  753   0.201   0.724   3.504
  242SOL    HW2  754   0.100   0.834   3.437
  243SOL     OW  755   0.613   1.365   2.588
  243SOL    HW1  756   0.564   1.278   2.597
  243SOL    HW2  757   0.590   1.408   2.501
  244SOL     OW  758   1.293   1.228   3.285
  244SOL    HW1  759   1.330   1.155   3.227
  244SOL    HW2  760   1.345   1.233   3.370
  245SOL     OW  761   0.809   0.004   2.364
  245SOL    HW1  762   0.849   0.095   2.355
  245SOL    HW2  763   0.709   0.012   2.370
  246SOL     OW  764   0.197   0.976   3.126
  246SOL    HW1  765   0.286   0.931   3.112
  246SOL    HW2  766   0.124   0.911   3.107
  247SOL     OW  767   1.525   0.999   2.052
  247SOL    HW1  768   1.462   0.923   2.065
  247SOL    HW2  769   1.573   1.017   2.138
  248SOL     OW  770   1.187   1.792   3.478
  248SOL    HW1  771   1.211   1.852   3.402
  248SOL    HW2  772   1.194   1.697   3.448
  249SOL     OW  773   0.317   0.251   3.663
  249SOL    HW1  774   0.388   0.322   3.669
  249SOL    HW2  775   0.229   0.290   3.691
  250SOL     OW  776   1.466   1.417   2.815
  250SOL    HW1  777   1.407   1.423   2.895
  250SOL    HW2  778   1.451   1.329   2.769
  251SOL     OW  779   1.667   1.714   2.434
  251SOL    HW1  780   1.626   1.691   2.346
  251SOL    HW2  781   1.649   1.640   2.499
  252SOL     OW  782   0.598   0.729   2.132
  252SOL    HW1  783   0.622   0.798   2.064
  252SOL    HW2  784   0.520   0.762   2.186
  253SOL     OW  785   1.281   0.345   2.806
  253SOL    HW1  786   1.195   0.295   2.793
  253SOL    HW2  787   1.343   0.291   2.862
  254SOL     OW  788   1.576   1.662   2.169
  254SOL    HW1  789   1.665   1.708   2.172
  254SOL    HW2  790   1.555   1.638   2.074
  255SOL     OW  791   0.807   0.605   3.327
  255SOL    HW1  792   0.760   0.602   3.416
  255SOL    HW2  793   0.756   0.550   3.261
  256SOL     OW  794   1.394   0.469   3.536
  256SOL    HW1  795   1.374   0.512   3.624
  256SOL    HW2  796   1.472   0.407   3.545
  257SOL     OW  797   0.973   0.890   3.434
  257SOL    HW1  798   1.019   0.806   3.405
  257SOL    HW2  799   0.917   0.924   3.359
  258SOL     OW  800   0.991   0.410   3.104
  258SOL    HW1  801   0.914   0.444   3.158
  258SOL    HW2  802   0.957   0.359   3.025
  259SOL     OW  803   1.041   0.701   2.291
  259SOL    HW1  804   1.067   0.697   2.387
  259SOL    HW2  805   0.956   0.650   2.277
  260SOL     OW  806   0.076   0.811   2.651
  260SOL    HW1  807   0.175   0.799   2.660
  260SOL    HW2  808   0.052   0.906   2.672
  261SOL     OW  809   0.130   1.821   3.433
  261SOL    HW1  810   0.120   1.806   3.532
  261SOL    HW2  811   0.044   1.857   3.397
  262SOL     OW  812   0.865   0.348   2.057
  262SOL    HW1  813   0.924   0.411   2.008
  262SOL    HW2  814   0.884   0.254   2.028
  263SOL     OW  815   1.719   0.585   3.693
  263SOL    HW1  816   1.693   0.674   3.657
  263SOL    HW2  817   1.717   0.517   3.620
  264SOL     OW  818   1.362   1.144   2.407
  264SOL    HW1  819   1.445   1.115   2.359
  264SOL    HW2  820   1.313   1.211   2.351
  265SOL     OW  821   0.550   0.196   2.747
  265SOL    HW1  822   0.545   0.191   2.847
  265SOL    HW2  823   0.552   0.292   2.718
  266SOL     OW  824   1.008   1.456   2.339
  266SOL    HW1  825   0.962   1.528   2.287
  266SOL    HW2  826   1.004   1.476   2.437
  267SOL     OW  827   0.351   1.801   2.715
  267SOL    HW1  828   0.401   1.715   2.721
  267SOL    HW2  829   0.416   1.878   2.712
  268SOL     OW  830   1.795   1.066   2.735
  268SOL    HW1  831   1.733   1.051   2.659
  268SOL    HW2  832   1.743   1.077   2.820
  269SOL     OW  833   1.227   1.550   3.368
  269SOL    HW1  834   1.233   1.473   3.432
  269SOL    HW2  835   1.175   1.524   3.288
  270SOL     OW  836   0.321   0.943   2.104
  270SOL    HW1  837   0.403   0.982   2.062
  270SOL    HW2  838   0.294   0.861   2.055
  271SOL     OW  839   1.458   0.735   2.590
  271SOL    HW1  840   1.453   0.670   2.665
  271SOL    HW2  841   1.538   0.794   2.603
  272SOL     OW  842   0.461   1.266   3.589
  272SOL    HW1  843   0.411   1.267   3.503
  272SOL    HW2  844   0.398   1.248   3.665
  273SOL     OW  845   1.111   1.776   2.099
  273SOL    HW1  846   1.051   1.714   2.149
  273SOL    HW2  847   1.142   1.732   2.014
  274SOL     OW  848   0.202   0.285   3.360
  274SOL    HW1  849   0.122   0.345   3.347
  274SOL    HW2  850   0.192   0.236   3.446
  275SOL     OW  851   1.632   1.377   1.943
  275SOL    HW1  852   1.600   1.471   1.933
  275SOL    HW2  853   1.556   1.314   1.931
  276SOL     OW  854   0.464   1.743   2.185
  276SOL    HW1  855   0.497   1.782   2.271
  276SOL    HW2  856   0.540   1.736   2.120
  277SOL     OW  857   1.400   0.107   2.288
  277SOL    HW1  858   1.376   0.070   2.198
  277SOL    HW2  859   1.499   0.123   2.292
  278SOL     OW  860   0.249   1.785   3.103
  278SOL    HW1  861   0.306   1.720   3.153
  278SOL    HW2  862   0.233   1.752   3.010
  279SOL     OW  863   0.940   1.698   2.766
  279SOL    HW1  864   1.020   1.641   2.787
  279SOL    HW2  865   0.891   1.658   2.689
  280SOL     OW  866   0.382   0.700   2.342
  280SOL    HW1  867   0.427   0.610   2.339
  280SOL    HW2  868   0.288   0.689   2.375
  281SOL     OW  869   1.547   0.222   3.591
  281SOL    HW1  870   1.542   0.259   3.683
  281SOL    HW2  871   1.475   0.153   3.579
  282SOL     OW  872   0.614   0.122   1.979
  282SOL    HW1  873   0.712   0.100   1.986
  282SOL    HW2  874   0.583   0.105   1.886
  283SOL     OW  875   0.781   0.264   3.611
  283SOL    HW1  876   0.848   0.203   3.654
  283SOL    HW2  877   0.708   0.283   3.676
  284SOL     OW  878   0.888   1.514   3.057
  284SOL    HW1  879   0.865   1.489   2.963
  284SOL    HW2  880   0.949   1.445   3.096
  285SOL     OW  881   1.351   0.590   3.295
  285SOL    HW1  882   1.379   0.547   3.380
  285SOL    HW2  883   1.376   0.686   3.296
  286SOL     OW  884   0.803   1.402   2.786
  286SOL    HW1  885   0.893   1.416   2.744
  286SOL    HW2  886   0.732   1.404   2.715
  287SOL     OW  887   0.922   0.503   2.761
  287SOL    HW1  888   0.897   0.494   2.665
  287SOL    HW2  889   0.970   0.421   2.792
  288SOL     OW  890   0.539   0.064   2.374
  288SOL    HW1  891   0.458   0.065   2.432
  288SOL    HW2  892   0.542   0.147   2.319
  289SOL     OW  893   1.434   1.188   1.903
  289SOL    HW1  894   1.466   1.112   1.960
  289SOL    HW2  895   1.342   1.215   1.933
  290SOL     OW  896   0.297   0.035   2.033
  290SOL    HW1  897   0.346   0.119   2.012
  290SOL    HW2  898   0.359  -0.030   2.078
  291SOL     OW  899   0.935   0.236   2.342
  291SOL    HW1  900   0.887   0.277   2.264
  291SOL    HW2  901   1.034   0.234   2.323
  292SOL     OW  902   1.076   0.683   3.326
  292SOL    HW1  903   0.996   0.622   3.329
  292SOL    HW2  904   1.157   0.630   3.302
  293SOL     OW  905   1.227   1.570   2.655
  293SOL    HW1  906   1.248   1.644   2.590
  293SOL    HW2  907   1.295   1.570   2.728
  294SOL     OW  908   0.459   1.152   2.603
  294SOL    HW1  909   0.388   1.125   2.668
  294SOL    HW2  910   0.433   1.124   2.510
  295SOL     OW  911   1.271   1.797   2.453
  295SOL    HW1  912   1.315   1.861   2.389
  295SOL    HW2  913   1.221   1.849   2.523
  296SOL     OW  914   1.032   0.549   1.878
  296SOL    HW1  915   0.991   0.631   1.839
  296SOL    HW2  916   1.096   0.575   1.951
  297SOL     OW  917   0.078   0.556   3.248
  297SOL    HW1  918   0.170   0.555   3.207
  297SOL    HW2  919   0.072   0.630   3.315
  298SOL     OW  920   0.561   0.222   3.009
  298SOL    HW1  921   0.599   0.138   3.046
  298SOL    HW2  922   0.473   0.241   3.053
  299SOL     OW  923   0.866   0.454   2.504
  299SOL    HW1  924   0.834   0.526   2.442
  299SOL    HW2  925   0.890   0.373   2.451
  300SOL     OW  926   1.017   0.039   2.615
  300SOL    HW1  927   0.945   0.044   2.546
  300SOL    HW2  928   0.993  -0.030   2.684
  301SOL     OW  929   1.429   1.173   2.729
  301SOL    HW1  930   1.374   1.089   2.722
  301SOL    HW2  931   1.455   1.202   2.637
  302SOL     OW  932   1.466   0.590   2.854
  302SOL    HW1  933   1.436   0.495   2.861
  302SOL    HW2  934   1.539   0.606   2.920
  303SOL     OW  935   1.857   0.833   2.239
  303SOL    HW1  936   1.899   0.769   2.303
  303SOL    HW2  937   1.819   0.782   2.161
  304SOL     OW  938   0.488   1.385   2.036
  304SOL    HW1  939   0.401   1.370   2.083
  304SOL    HW2  940   0.471   1.411   1.941
  305SOL     OW  941   1.664   1.280   2.519
  305SOL    HW1  942   1.763   1.288   2.533
  305SOL    HW2  943   1.619   1.364   2.550
  306SOL     OW  944   1.390   0.575   1.940
  306SOL    HW1  945   1.336   0.554   2.021
  306SOL    HW2  946   1.481   0.534   1.949
  307SOL     OW  947   0.527   0.256   2.190
  307SOL    HW1  948   0.554   0.197   2.115
  307SOL    HW2  949   0.527   0.351   2.159
  308SOL     OW  950   1.754   1.223   3.450
  308SOL    HW1  951   1.845   1.184   3.437
  308SOL    HW2  952   1.762   1.319   3.474
  309SOL     OW  953   1.064   1.347   3.202
  309SOL    HW1  954   0.984   1.324   3.257
  309SOL    HW2  955   1.147   1.321   3.251
  310SOL     OW  956   1.592   1.629   3.487
  310SOL    HW1  957   1.619   1.663   3.397
  310SOL    HW2  958   1.671   1.591   3.533
  311SOL     OW  959   1.111   1.195   2.962
  311SOL    HW1  960   1.071   1.239   3.043
  311SOL    HW2  961   1.070   1.232   2.879
  312SOL     OW  962   1.638   1.099   2.941
  312SOL    HW1  963   1.643   1.180   3.000
  312SOL    HW2  964   1.552   1.101   2.890
  313SOL     OW  965   0.915   0.089   3.264
  313SOL    HW1  966   0.940   0.069   3.169
  313SOL    HW2  967   0.987   0.145   3.306
  314SOL     OW  968   0.980   1.116   3.581
  314SOL    HW1  969   0.881   1.122   3.591
  314SOL    HW2  970   1.003   1.036   3.525
  315SOL     OW  971   0.705   1.050   2.230
  315SOL    HW1  972   0.691   1.057   2.329
  315SOL    HW2  973   0.789   0.999   2.212
  316SOL     OW  974   0.410   0.813   3.113
  316SOL    HW1  975   0.496   0.825   3.163
  316SOL    HW2  976   0.368   0.726   3.140
  317SOL     OW  977   1.274   0.386   3.124
  317SOL    HW1  978   1.295   0.460   3.188
  317SOL    HW2  979   1.185   0.403   3.081
  318SOL     OW  980   0.064   1.564   3.193
  318SOL    HW1  981   0.018   1.646   3.159
  318SOL    HW2  982   0.162   1.583   3.202
  319SOL     OW  983   0.367   1.100   2.363
  319SOL    HW1  984   0.360   1.183   2.307
  319SOL    HW2  985   0.371   1.020   2.303
  320SOL     OW  986   0.566   0.537   2.727
  320SOL    HW1  987   0.578   0.603   2.653
  320SOL    HW2  988   0.612   0.571   2.810
  321SOL     OW  989   1.252   1.348   2.250
  321SOL    HW1  990   1.302   1.425   2.290
  321SOL    HW2  991   1.157   1.350   2.282
  322SOL     OW  992   1.272   1.445   3.004
  322SOL    HW1  993   1.319   1.458   3.091
  322SOL    HW2  994   1.206   1.371   3.013
  323SOL     OW  995   1.582   0.639   2.334
  323SOL    HW1  996   1.551   0.700   2.407
  323SOL    HW2  997   1.632   0.691   2.265
  324SOL     OW  998   0.354   1.510   3.191
  324SOL    HW1  999   0.333   1.466   3.104
  324SOL    HW2 1000   0.451   1.536   3.194
  325SOL     OW 1001   0.402   0.751   3.460
  325SOL    HW1 1002   0.470   0.806   3.413
  325SOL    HW2 1003   0.442   0.663   3.487
  326SOL     OW 1004   1.587   0.779   3.532
  326SOL    HW1 1005   1.495   0.817   3.527
  326SOL    HW2 1006   1.647   0.826   3.467
  327SOL     OW 1007   1.013   0.105   3.632
  327SOL    HW1 1008   1.019   0.190   3.580
  327SOL    HW2 1009   1.045   0.029   3.575
  328SOL     OW 1010   0.504   0.050   3.602
  328SOL    HW1 1011   0.462  -0.007   3.532
  328SOL    HW2 1012   0.438   0.119   3.634
  329SOL     OW 1013   0.573   0.870   2.891
  329SOL    HW1 1014   0.617   0.959   2.882
  329SOL    HW2 1015   0.510   0.870   2.968
  330SOL     OW 1016   1.360   0.862   2.907
  330SOL    HW1 1017   1.285   0.862   2.841
  330SOL    HW2 1018   1.397   0.770   2.916
  331SOL     OW 1019   1.209   0.525   2.137
  331SOL    HW1 1020   1.222   0.441   2.191
  331SOL    HW2 1021   1.180   0.599   2.197
  332SOL     OW 1022   0.307   0.213   3.093
  332SOL    HW1 1023   0.284   0.250   3.183
  332SOL    HW2 1024   0.277   0.118   3.087
  333SOL     OW 1025   0.037   1.310   3.144
  333SOL    HW1 1026   0.090   1.261   3.212
  333SOL    HW2 1027   0.059   1.408   3.149
  334SOL     OW 1028   0.732   0.634   2.926
  334SOL    HW1 1029   0.791   0.608   2.850
  334SOL    HW2 1030   0.704   0.730   2.915
  335SOL     OW 1031   1.728   0.935   3.716
  335SOL    HW1 1032   1.682   0.928   3.627
  335SOL    HW2 1033   1.666   0.979   3.782
  336SOL     OW 1034   0.307   0.063   2.480
  336SOL    HW1 1035   0.296   0.157   2.513
  336SOL    HW2 1036   0.302   0.000   2.557
  337SOL     OW 1037   1.622   0.367   2.236
  337SOL    HW1 1038   1.624   0.291   2.300
  337SOL    HW2 1039   1.574   0.444   2.276
  338SOL     OW 1040   1.023   0.766   2.828
  338SOL    HW1 1041   1.038   0.787   2.924
  338SOL    HW2 1042   0.993   0.671   2.819
  339SOL     OW 1043   0.980   1.573   3.562
  339SOL    HW1 1044   0.960   1.617   3.474
  339SOL    HW2 1045   1.019   1.482   3.546
  340SOL     OW 1046   1.859   1.518   3.467
  340SOL    HW1 1047   1.873   1.545   3.372
  340SOL    HW2 1048   1.942   1.540   3.520
  341SOL     OW 1049   0.350   0.898   3.666
  341SOL    HW1 1050   0.426   0.942   3.714
  341SOL    HW2 1051   0.385   0.851   3.584
  342SOL     OW 1052   1.540   0.274   1.987
  342SOL    HW1 1053   1.479   0.199   2.010
  342SOL    HW2 1054   1.562   0.326   2.070
  343SOL     OW 1055   1.303   0.838   1.904
  343SOL    HW1 1056   1.337   0.745   1.919
  343SOL    HW2 1057   1.321   0.865   1.809
  344SOL     OW 1058   1.068   1.333   2.711
  344SOL    HW1 1059   1.075   1.249   2.656
  344SOL    HW2 1060   1.130   1.402   2.675
  345SOL     OW 1061   0.319   0.810   2.811
  345SOL    HW1 1062   0.412   0.846   2.816
  345SOL    HW2 1063   0.313   0.725   2.863
  346SOL     OW 1064   0.339   0.509   2.868
  346SOL    HW1 1065   0.287   0.426   2.851
  346SOL    HW2 1066   0.416   0.514   2.804
  347SOL     OW 1067   1.138   0.380   3.540
  347SOL    HW1 1068   1.093   0.443   3.604
  347SOL    HW2 1069   1.231   0.411   3.523
  348SOL     OW 1070   1.160   0.207   3.339
  348SOL    HW1 1071   1.160   0.271   3.416
  348SOL    HW2 1072   1.188   0.255   3.256
  349SOL     OW 1073   0.008   1.326   2.062
  349SOL    HW1 1074  -0.085   1.347   2.031
  349SOL    HW2 1075   0.018   1.227   2.075
  350SOL     OW 1076   0.088   1.801   2.789
  350SOL    HW1 1077   0.046   1.715   2.762
  350SOL    HW2 1078   0.182   1.804   2.755
  351SOL     OW 1079   0.504   1.568   2.772
  351SOL    HW1 1080   0.570   1.642   2.781
  351SOL    HW2 1081   0.548   1.489   2.730
  352SOL     OW 1082   1.002   0.796   3.100
  352SOL    HW1 1083   1.043   0.764   3.186
  352SOL    HW2 1084   0.906   0.769   3.097
  353SOL     OW 1085   0.040   0.544   2.976
  353SOL    HW1 1086   0.125   0.511   2.935
  353SOL    HW2 1087   0.053   0.559   3.074
  354SOL     OW 1088   0.189   0.520   3.584
  354SOL    HW1 1089   0.248   0.480   3.514
  354SOL    HW2 1090   0.131   0.591   3.543
  355SOL     OW 1091   1.369   0.950   3.522
  355SOL    HW1 1092   1.408   1.039   3.542
  355SOL    HW2 1093   1.379   0.930   3.425
  356SOL     OW 1094   0.815   0.572   2.187
  356SOL    HW1 1095   0.822   0.483   2.141
  356SOL    HW2 1096   0.721   0.606   2.179
  357SOL     OW 1097   1.657   0.604   3.068
  357SOL    HW1 1098   1.619   0.535   3.130
  357SOL    HW2 1099   1.739   0.568   3.024
  358SOL     OW 1100   0.252   1.564   3.606
  358SOL    HW1 1101   0.222   1.621   3.682
  358SOL    HW2 1102   0.245   1.467   3.632
  359SOL     OW 1103   0.671   0.464   3.131
  359SOL    HW1 1104   0.637   0.375   3.101
  359SOL    HW2 1105   0.697   0.518   3.051
  360SOL     OW 1106   0.930   1.678   3.327
  360SOL    HW1 1107   0.906   1.660   3.232
  360SOL    HW2 1108   0.960   1.772   3.337
  361SOL     OW 1109   0.473   0.500   2.053
  361SOL    HW1 1110   0.534   0.580   2.057
  361SOL    HW2 1111   0.378   0.531   2.060
  362SOL     OW 1112   0.159   1.137   3.328
  362SOL    HW1 1113   0.181   1.076   3.404
  362SOL    HW2 1114   0.169   1.088   3.242
  363SOL     OW 1115   1.347   1.059   3.096
  363SOL    HW1 1116   1.371   0.996   3.022
  363SOL    HW2 1117   1.257   1.099   3.078
  364SOL     OW 1118   1.302   0.855   2.171
  364SOL    HW1 1119   1.216   0.824   2.213
  364SOL    HW2 1120   1.298   0.841   2.072
  365SOL     OW 1121   1.759   1.747   3.016
  365SOL    HW1 1122   1.820   1.777   2.943
  365SOL    HW2 1123   1.721   1.658   2.994
  366SOL     OW 1124   1.252   1.731   2.990
  366SOL    HW1 1125   1.336   1.736   2.936
  366SOL    HW2 1126   1.229   1.635   3.008
  367SOL     OW 1127   0.083   1.258   2.884
  367SOL    HW1 1128   0.078   1.257   2.984
  367SOL    HW2 1129   0.000   1.217   2.846
  368SOL     OW 1130   0.688   1.662   3.578
  368SOL    HW1 1131   0.632   1.743   3.587
  368SOL    HW2 1132   0.740   1.666   3.492
  369SOL     OW 1133   1.726   0.135   2.385
  369SOL    HW1 1134   1.799   0.118   2.318
  369SOL    HW2 1135   1.695   0.048   2.423
  370SOL     OW 1136   1.388   1.573   2.339
  370SOL    HW1 1137   1.455   1.585   2.265
  370SOL    HW2 1138   1.348   1.662   2.362
  371SOL     OW 1139   0.130   1.794   3.713
  371SOL    HW1 1140   0.089   1.720   3.766
  371SOL    HW2 1141   0.194   1.845   3.771
  372SOL     OW 1142   1.280   0.927   2.534
  372SOL    HW1 1143   1.340   0.846   2.536
  372SOL    HW2 1144   1.320   0.996   2.474
  373SOL     OW 1145   0.830   1.273   3.284
  373SOL    HW1 1146   0.825   1.306   3.379
  373SOL    HW2 1147   0.744   1.292   3.238
  374SOL     OW 1148   0.672   1.616   2.016
  374SOL    HW1 1149   0.681   1.626   1.917
  374SOL    HW2 1150   0.632   1.527   2.037
  375SOL     OW 1151   1.650   1.720   3.256
  375SOL    HW1 1152   1.703   1.730   3.172
  375SOL    HW2 1153   1.623   1.810   3.290
  376SOL     OW 1154   1.841   0.175   2.825
  376SOL    HW1 1155   1.880   0.090   2.789
  376SOL    HW2 1156   1.743   0.177   2.806
  377SOL     OW 1157   0.263   0.326   2.582
  377SOL    HW1 1158   0.184   0.377   2.548
  377SOL    HW2 1159   0.254   0.311   2.680
  378SOL     OW 1160   1.194   1.612   1.893
  378SOL    HW1 1161   1.200   1.519   1.930
  378SOL    HW2 1162   1.135   1.612   1.813
  379SOL     OW 1163   0.822   1.002   3.234
  379SOL    HW1 1164   0.862   1.001   3.142
  379SOL    HW2 1165   0.832   1.094   3.274
  380SOL     OW 1166   0.916   0.910   2.153
  380SOL    HW1 1167   0.979   0.948   2.085
  380SOL    HW2 1168   0.956   0.827   2.192
  381SOL     OW 1169   1.504   1.607   1.906
  381SOL    HW1 1170   1.412   1.644   1.913
  381SOL    HW2 1171   1.542   1.627   1.816
  382SOL     OW 1172   0.372   1.288   3.352
  382SOL    HW1 1173   0.359   1.381   3.318
  382SOL    HW2 1174   0.288   1.236   3.339
  383SOL     OW 1175   1.614   1.292   3.151
  383SOL    HW1 1176   1.674   1.295   3.231
  383SOL    HW2 1177   1.539   1.356   3.164
  384SOL     OW 1178   1.039   1.098   2.558
  384SOL    HW1 1179   0.969   1.051   2.612
  384SOL    HW2 1180   1.098   1.030   2.515
  385SOL     OW 1181   1.014   0.236   2.833
  385SOL    HW1 1182   1.006   0.200   2.740
  385SOL    HW2 1183   1.012   0.160   2.898
  386SOL     OW 1184   0.590   1.487   2.353
  386SOL    HW1 1185   0.632   1.429   2.283
  386SOL    HW2 1186   0.546   1.566   2.309
  387SOL     OW 1187   1.709   0.385   3.243
  387SOL    HW1 1188   1.782   0.454   3.247
  387SOL    HW2 1189   1.737   0.310   3.184
  388SOL     OW 1190   0.255   1.348   2.152
  388SOL    HW1 1191   0.159   1.349   2.125
  388SOL    HW2 1192   0.267   1.401   2.236
  389SOL     OW 1193   0.105   1.013   3.588
  389SOL    HW1 1194   0.028   0.980   3.642
  389SOL    HW2 1195   0.190   0.983   3.630
  390SOL     OW 1196   0.672   0.203   3.351
  390SOL    HW1 1197   0.762   0.187   3.311
  390SOL    HW2 1198   0.680   0.208   3.450
  391SOL     OW 1199   0.075   0.345   1.895
  391SOL    HW1 1200  -0.017   0.317   1.866
  391SOL    HW2 1201   0.106   0.422   1.839
  392SOL     OW 1202   1.440   0.856   3.260
  392SOL    HW1 1203   1.383   0.908   3.197
  392SOL    HW2 1204   1.536   0.868   3.236
  393SOL     OW 1205   0.072   0.166   2.180
  393SOL    HW1 1206   0.055   0.249   2.126
  393SOL    HW2 1207   0.162   0.129   2.158
  394SOL     OW 1208   1.183   1.335   1.981
  394SOL    HW1 1209   1.084   1.324   1.983
  394SOL    HW2 1210   1.217   1.350   2.074
  395SOL     OW 1211   0.613   0.842   3.293
  395SOL    HW1 1212   0.669   0.923   3.276
  395SOL    HW2 1213   0.672   0.762   3.296
  396SOL     OW 1214   1.493   1.767   2.821
  396SOL    HW1 1215   1.526   1.831   2.752
  396SOL    HW2 1216   1.559   1.761   2.896
  397SOL     OW 1217   0.716   0.565   3.570
  397SOL    HW1 1218   0.735   0.630   3.644
  397SOL    HW2 1219   0.776   0.485   3.579
  398SOL     OW 1220   1.450   1.220   3.495
  398SOL    HW1 1221   1.441   1.210   3.594
  398SOL    HW2 1222   1.546   1.213   3.469
  399SOL     OW 1223   0.390   1.741   3.422
  399SOL    HW1 1224   0.299   1.782   3.420
  399SOL    HW2 1225   0.383   1.647   3.454
  400SOL     OW 1226   1.674   0.883   3.116
  400SOL    HW1 1227   1.647   0.794   3.079
  400SOL    HW2 1228   1.675   0.951   3.043
  401SOL     OW 1229   1.225   0.325   2.311
  401SOL    HW1 1230   1.290   0.251   2.300
  401SOL    HW2 1231   1.245   0.375   2.395
  402SOL     OW 1232   0.594   0.745   2.514
  402SOL    HW1 1233   0.644   0.830   2.495
  402SOL    HW2 1234   0.506   0.747   2.466
  403SOL     OW 1235   1.777   0.342   3.504
  403SOL    HW1 1236   1.760   0.373   3.410
  403SOL    HW2 1237   1.693   0.305   3.542
  404SOL     OW 1238   1.730   0.934   3.379
  404SOL    HW1 1239   1.768   1.025   3.394
  404SOL    HW2 1240   1.722   0.917   3.280
  405SOL     OW 1241   0.859   1.374   1.878
  405SOL    HW1 1242   0.813   1.389   1.966
  405SOL    HW2 1243   0.903   1.459   1.848
  406SOL     OW 1244   0.661   1.790   2.815
  406SOL    HW1 1245   0.615   1.878   2.802
  406SOL    HW2 1246   0.760   1.802   2.808
  407SOL     OW 1247   0.859   0.956   2.723
  407SOL    HW1 1248   0.913   0.887   2.771
  407SOL    HW2 1249   0.827   1.025   2.789
  408SOL     OW 1250   1.083   0.984   1.949
  408SOL    HW1 1251   1.060   1.037   1.867
  408SOL    HW2 1252   1.164   0.928   1.930
  409SOL     OW 1253   1.861   1.569   2.713
  409SOL    HW1 1254   1.790   1.557   2.643
  409SOL    HW2 1255   1.862   1.490   2.773
  410SOL     OW 1256   0.221   1.314   3.706
  410SOL    HW1 1257   0.156   1.241   3.685
  410SOL    HW2 1258   0.225   1.328   3.804
  411SOL     OW 1259   0.079   1.240   2.515
  411SOL    HW1 1260   0.078   1.193   2.603
  411SOL    HW2 1261   0.161   1.212   2.464
  412SOL     OW 1262   0.672   1.391   3.486
  412SOL    HW1 1263   0.594   1.341   3.524
  412SOL    HW2 1264   0.669   1.486   3.517
  413SOL     OW 1265   1.824   0.192   3.089
  413SOL    HW1 1266   1.820   0.102   3.133
  413SOL    HW2 1267   1.827   0.181   2.990
  414SOL     OW 1268   0.428   0.424   2.382
  414SOL    HW1 1269   0.458   0.352   2.320
  414SOL    HW2 1270   0.389   0.384   2.465
  415SOL     OW 1271   1.705   1.487   2.966
  415SOL    HW1 1272   1.612   1.462   2.939
  415SOL    HW2 1273   1.731   1.437   3.048
  416SOL     OW 1274   0.317   0.547   3.142
  416SOL    HW1 1275   0.355   0.488   3.214
  416SOL    HW2 1276   0.357   0.521   3.054
  417SOL     OW 1277   0.812   1.586   2.549
  417SOL    HW1 1278   0.844   1.596   2.455
  417SOL    HW2 1279   0.733   1.524   2.551
  418SOL     OW 1280   1.424   0.214   2.974
  418SOL    HW1 1281   1.476   0.149   3.029
  418SOL    HW2 1282   1.375   0.277   3.035
  419SOL     OW 1283   1.001   0.034   3.016
  419SOL    HW1 1284   0.938  -0.038   2.985
  419SOL    HW2 1285   1.094  -0.002   3.016
  420SOL     OW 1286   0.770   1.330   2.163
  420SOL    HW1 1287   0.724   1.243   2.180
  420SOL    HW2 1288   0.861   1.327   2.204
  421SOL     OW 1289   0.618   1.567   3.146
  421SOL    HW1 1290   0.613   1.649   3.203
  421SOL    HW2 1291   0.707   1.564   3.101
  422SOL     OW 1292   1.352   0.052   2.030
  422SOL    HW1 1293   1.387   0.011   1.946
  422SOL    HW2 1294   1.262   0.014   2.050
  423SOL     OW 1295   1.300   0.453   2.553
  423SOL    HW1 1296   1.241   0.533   2.557
  423SOL    HW2 1297   1.315   0.418   2.646
  424SOL     OW 1298   1.593   0.221   2.744
  424SOL    HW1 1299   1.509   0.220   2.798
  424SOL    HW2 1300   1.595   0.304   2.688
  425SOL     OW 1301   0.039   1.077   2.162
  425SOL    HW1 1302   0.138   1.066   2.153
  425SOL    HW2 1303  -0.001   0.991   2.194
  426SOL     OW 1304   0.875   1.646   2.199
  426SOL    HW1 1305   0.798   1.611   2.145
  426SOL    HW2 1306   0.843   1.717   2.261
  427SOL     OW 1307   0.230   0.628   3.837
  427SOL    HW1 1308   0.137   0.626   3.874
  427SOL    HW2 1309   0.231   0.589   3.745
  428SOL     OW 1310   0.225   0.275   4.720
  428SOL    HW1 1311   0.260   0.258   4.812
  428SOL    HW2 1312   0.137   0.230   4.708
  429SOL     OW 1313   0.019   0.368   4.371
  429SOL    HW1 1314  -0.063   0.411   4.410
  429SOL    HW2 1315  -0.009   0.295   4.308
  430SOL     OW 1316   0.569   1.275   4.889
  430SOL    HW1 1317   0.476   1.268   4.852
  430SOL    HW2 1318   0.580   1.364   4.933
  431SOL     OW 1319   1.555   1.511   4.427
  431SOL    HW1 1320   1.498   1.495   4.508
  431SOL    HW2 1321   1.496   1.521   4.347
  432SOL     OW 1322   1.135   0.703   4.441
  432SOL    HW1 1323   1.192   0.781   4.416
  432SOL    HW2 1324   1.075   0.729   4.517
  433SOL     OW 1325   1.755   0.607   3.955
  433SOL    HW1 1326   1.743   0.594   3.856
  433SOL    HW2 1327   1.725   0.526   4.004
  434SOL     OW 1328   0.768   1.144   4.747
  434SOL    HW1 1329   0.690   1.161   4.807
  434SOL    HW2 1330   0.802   1.231   4.711
  435SOL     OW 1331   0.685   1.012   4.389
  435SOL    HW1 1332   0.754   0.996   4.459
  435SOL    HW2 1333   0.612   1.069   4.427
  436SOL     OW 1334   0.335   1.435   4.785
  436SOL    HW1 1335   0.257   1.404   4.732
  436SOL    HW2 1336   0.393   1.493   4.728
  437SOL     OW 1337   1.460   1.505   5.063
  437SOL    HW1 1338   1.484   1.599   5.089
  437SOL    HW2 1339   1.444   1.451   5.145
  438SOL     OW 1340   0.438   0.392   5.223
  438SOL    HW1 1341   0.520   0.336   5.232
  438SOL    HW2 1342   0.357   0.334   5.227
  439SOL     OW 1343   1.603   0.447   4.461
  439SOL    HW1 1344   1.529   0.493   4.411
  439SOL    HW2 1345   1.654   0.515   4.514
  440SOL     OW 1346   0.231   1.713   4.207
  440SOL    HW1 1347   0.265   1.790   4.261
  440SOL    HW2 1348   0.275   1.713   4.117
  441SOL     OW 1349   0.230   1.434   4.262
  441SOL    HW1 1350   0.204   1.530   4.262
  441SOL    HW2 1351   0.159   1.380   4.307
  442SOL     OW 1352   0.240   1.091   4.610
  442SOL    HW1 1353   0.254   1.007   4.662
  442SOL    HW2 1354   0.185   1.155   4.665
  443SOL     OW 1355   0.620   1.786   5.163
  443SOL    HW1 1356   0.528   1.769   5.198
  443SOL    HW2 1357   0.648   1.878   5.189
  444SOL     OW 1358   0.606   0.964   3.847
  444SOL    HW1 1359   0.613   1.048   3.793
  444SOL    HW2 1360   0.652   0.977   3.935
  445SOL     OW 1361   1.594   0.114   5.204
  445SOL    HW1 1362   1.576   0.181   5.132
  445SOL    HW2 1363   1.591   0.160   5.293
  446SOL     OW 1364   0.122   0.643   4.287
  446SOL    HW1 1365   0.077   0.555   4.304
  446SOL    HW2 1366   0.121   0.697   4.371
  447SOL     OW 1367   1.842   1.767   4.083
  447SOL    HW1 1368   1.896   1.738   4.163
  447SOL    HW2 1369   1.872   1.857   4.054
  448SOL     OW 1370   0.027   1.596   3.841
  448SOL    HW1 1371   0.008   1.500   3.862
  448SOL    HW2 1372  -0.006   1.654   3.916
  449SOL     OW 1373   1.689   0.922   4.336
  449SOL    HW1 1374   1.784   0.893   4.344
  449SOL    HW2 1375   1.681   0.987   4.261
  450SOL     OW 1376   1.641   1.108   4.156
  450SOL    HW1 1377   1.727   1.110   4.104
  450SOL    HW2 1378   1.655   1.155   4.244
  451SOL     OW 1379   0.613   1.365   4.450
  451SOL    HW1 1380   0.564   1.278   4.459
  451SOL    HW2 1381   0.590   1.408   4.363
  452SOL     OW 1382   0.809   0.004   4.226
  452SOL    HW1 1383   0.849   0.095   4.217
  452SOL    HW2 1384   0.709   0.012   4.232
  453SOL     OW 1385   0.197   0.976   4.988
  453SOL    HW1 1386   0.286   0.931   4.974
  453SOL    HW2 1387   0.124   0.911   4.969
  454SOL     OW 1388   1.525   0.999   3.914
  454SOL    HW1 1389   1.462   0.923   3.927
  454SOL    HW2 1390   1.573   1.017   4.000
  455SOL     OW 1391   0.317   0.251   5.525
  455SOL    HW1 1392   0.388   0.322   5.531
  455SOL    HW2 1393   0.229   0.290   5.553
  456SOL     OW 1394   1.466   1.417   4.677
  456SOL    HW1 1395   1.407   1.423   4.757
  456SOL    HW2 1396   1.451   1.329   4.631
  457SOL     OW 1397   1.667   1.714   4.296
  457SOL    HW1 1398   1.626   1.691   4.208
  457SOL    HW2 1399   1.649   1.640   4.361
  458SOL     OW 1400   0.598   0.729   3.994
  458SOL    HW1 1401   0.622   0.798   3.926
  458SOL    HW2 1402   0.520   0.762   4.048
  459SOL     OW 1403   1.281   0.345   4.668
  459SOL    HW1 1404   1.195   0.295   4.655
  459SOL    HW2 1405   1.343   0.291   4.724
  460SOL     OW 1406   1.576   1.662   4.031
  460SOL    HW1 1407   1.665   1.708   4.034
  460SOL    HW2 1408   1.555   1.638   3.936
  461SOL     OW 1409   0.807   0.605   5.189
  461SOL    HW1 1410   0.760   0.602   5.278
  461SOL    HW2 1411   0.756   0.550   5.123
  462SOL     OW 1412   0.991   0.410   4.966
  462SOL    HW1 1413   0.914   0.444   5.020
  462SOL    HW2 1414   0.957   0.359   4.887
  463SOL     OW 1415   1.041   0.701   4.153
  463SOL    HW1 1416   1.067   0.697   4.249
  463SOL    HW2 1417   0.956   0.650   4.139
  464SOL     OW 1418   0.076   0.811   4.513
  464SOL    HW1 1419   0.175   0.799   4.522
  464SOL    HW2 1420   0.052   0.906   4.534
  465SOL     OW 1421   0.130   1.821   5.295
  465SOL    HW1 1422   0.120   1.806   5.394
  465SOL    HW2 1423   0.044   1.857   5.259
  466SOL     OW 1424   0.865   0.348   3.919
  466SOL    HW1 1425   0.924   0.411   3.870
  466SOL    HW2 1426   0.884   0.254   3.890
  467SOL     OW 1427   1.362   1.144   4.269
  467SOL    HW1 1428   1.445   1.115   4.221
  467SOL    HW2 1429   1.313   1.211   4.213
  468SOL     OW 1430   0.550   0.196   4.609
  468SOL    HW1 1431   0.545   0.191   4.709
  468SOL    HW2 1432   0.552   0.292   4.580
  469SOL     OW 1433   1.008   1.456   4.201
  469SOL    HW1 1434   0.962   1.528   4.149
  469SOL    HW2 1435   1.004   1.476   4.299
  470SOL     OW 1436   0.351   1.801   4.577
  470SOL    HW1 1437   0.401   1.715   4.583
  470SOL    HW2 1438   0.416   1.878   4.574
  471SOL     OW 1439   1.795   1.066   4.597
  471SOL    HW1 1440   1.733   1.051   4.521
  471SOL    HW2 1441   1.743   1.077   4.682
  472SOL     OW 1442   0.321   0.943   3.966
  472SOL    HW1 1443   0.403   0.982   3.924
  472SOL    HW2 1444   0.294   0.861   3.917
  473SOL     OW 1445   1.458   0.735   4.452
  473SOL    HW1 1446   1.453   0.670   4.527
  473SOL    HW2 1447   1.538   0.794   4.465
  474SOL     OW 1448   1.111   1.776   3.961
  474SOL    HW1 1449   1.051   1.714   4.011
  474SOL    HW2 1450   1.142   1.732   3.876
  475SOL     OW 1451   1.632   1.377   3.805
  475SOL    HW1 1452   1.600   1.471   3.795
  475SOL    HW2 1453   1.556   1.314   3.793
  476SOL     OW 1454   0.464   1.743   4.047
  476SOL    HW1 1455   0.497   1.782   4.133
  476SOL    HW2 1456   0.540   1.736   3.982
  477SOL     OW 1457   1.400   0.107   4.150
  477SOL    HW1 1458   1.376   0.070   4.060
  477SOL    HW2 1459   1.499   0.123   4.154
  478SOL     OW 1460   0.249   1.785   4.965
  478SOL    HW1 1461   0.306   1.720   5.015
  478SOL    HW2 1462   0.233   1.752   4.872
  479SOL     OW 1463   0.940   1.698   4.628
  479SOL    HW1 1464   1.020   1.641   4.649
  479SOL    HW2 1465   0.891   1.658   4.551
  480SOL     OW 1466   0.382   0.700   4.204
  480SOL    HW1 1467   0.427   0.610   4.201
  480SOL    HW2 1468   0.288   0.689   4.237
  481SOL     OW 1469   0.614   0.122   3.841
  481SOL    HW1 1470   0.712   0.100   3.848
  481SOL    HW2 1471   0.583   0.105   3.748
  482SOL     OW 1472   0.888   1.514   4.919
  482SOL    HW1 1473   0.865   1.489   4.825
  482SOL    HW2 1474   0.949   1.445   4.958
  483SOL     OW 1475   0.803   1.402   4.648
  483SOL    HW1 1476   0.893   1.416   4.606
  483SOL    HW2 1477   0.732   1.404   4.577
  484SOL     OW 1478   0.922   0.503   4.623
  484SOL    HW1 1479   0.897   0.494   4.527
  484SOL    HW2 1480   0.970   0.421   4.654
  485SOL     OW 1481   0.539   0.064   4.236
  485SOL    HW1 1482   0.458   0.065   4.294
  485SOL    HW2 1483   0.542   0.147   4.181
  486SOL     OW 1484   1.434   1.188   3.765
  486SOL    HW1 1485   1.466   1.112   3.822
  486SOL    HW2 1486   1.342   1.215   3.795
  487SOL     OW 1487   0.297   0.035   3.895
  487SOL    HW1 1488   0.346   0.119   3.874
  487SOL    HW2 1489   0.359  -0.030   3.940
  488SOL     OW 1490   0.935   0.236   4.204
  488SOL    HW1 1491   0.887   0.277   4.126
  488SOL    HW2 1492   1.034   0.234   4.185
  489SOL     OW 1493   1.227   1.570   4.517
  489SOL    HW1 1494   1.248   1.644   4.452
  489SOL    HW2 1495   1.295   1.570   4.590
  490SOL     OW 1496   0.459   1.152   4.465
  490SOL    HW1 1497   0.388   1.125   4.530
  490SOL    HW2 1498   0.433   1.124   4.372
  491SOL     OW 1499   1.271   1.797   4.315
  491SOL    HW1 1500   1.315   1.861   4.251
  491SOL    HW2 1501   1.221   1.849   4.385
  492SOL     OW 1502   1.032   0.549   3.740
  492SOL    HW1 1503   0.991   0.631   3.701
  492SOL    HW2 1504   1.096   0.575   3.813
  493SOL     OW 1505   0.078   0.556   5.110
  493SOL    HW1 1506   0.170   0.555   5.069
  493SOL    HW2 1507   0.072   0.630   5.177
  494SOL     OW 1508   0.561   0.222   4.871
  494SOL    HW1 1509   0.599   0.138   4.908
  494SOL    HW2 1510   0.473   0.241   4.915
  495SOL     OW 1511   0.866   0.454   4.366
  495SOL    HW1 1512   0.834   0.526   4.304
  495SOL    HW2 1513   0.890   0.373   4.313
  496SOL     OW 1514   1.017   0.039   4.477
  496SOL    HW1 1515   0.945   0.044   4.408
  496SOL    HW2 1516   0.993  -0.030   4.546
  497SOL     OW 1517   1.429   1.173   4.591
  497SOL    HW1 1518   1.374   1.089   4.584
  497SOL    HW2 1519   1.455   1.202   4.499
  498SOL     OW 1520   1.466   0.590   4.716
  498SOL    HW1 1521   1.436   0.495   4.723
  498SOL    HW2 1522   1.539   0.606   4.782
  499SOL     OW 1523   1.857   0.833   4.101
  499SOL    HW1 1524   1.899   0.769   4.165
  499SOL    HW2 1525   1.819   0.782   4.023
  500SOL     OW 1526   0.488   1.385   3.898
  500SOL    HW1 1527   0.401   1.370   3.945
  500SOL    HW2 1528   0.471   1.411   3.803
  501SOL     OW 1529   1.664   1.280   4.381
  501SOL    HW1 1530   1.763   1.288   4.395
  501SOL    HW2 1531   1.619   1.364   4.412
  502SOL     OW 1532   1.390   0.575   3.802
  502SOL    HW1 1533   1.336   0.554   3.883
  502SOL    HW2 1534   1.481   0.534   3.811
  503SOL     OW 1535   0.527   0.256   4.052
  503SOL    HW1 1536   0.554   0.197   3.977
  503SOL    HW2 1537   0.527   0.351   4.021
  504SOL     OW 1538   1.064   1.347   5.064
  504SOL    HW1 1539   0.984   1.324   5.119
  504SOL    HW2 1540   1.147   1.321   5.113
  505SOL     OW 1541   1.111   1.195   4.824
  505SOL    HW1 1542   1.071   1.239   4.905
  505SOL    HW2 1543   1.070   1.232   4.741
  506SOL     OW 1544   1.638   1.099   4.803
  506SOL    HW1 1545   1.643   1.180   4.862
  506SOL    HW2 1546   1.552   1.101   4.752
  507SOL     OW 1547   0.915   0.089   5.126
  507SOL    HW1 1548   0.940   0.069   5.031
  507SOL    HW2 1549   0.987   0.145   5.168
  508SOL     OW 1550   0.705   1.050   4.092
  508SOL    HW1 1551   0.691   1.057   4.191
  508SOL    HW2 1552   0.789   0.999   4.074
  509SOL     OW 1553   0.410   0.813   4.975
  509SOL    HW1 1554   0.496   0.825   5.025
  509SOL    HW2 1555   0.368   0.726   5.002
  510SOL     OW 1556   1.274   0.386   4.986
  510SOL    HW1 1557   1.295   0.460   5.050
  510SOL    HW2 1558   1.185   0.403   4.943
  511SOL     OW 1559   0.064   1.564   5.055
  511SOL    HW1 1560   0.018   1.646   5.021
  511SOL    HW2 1561   0.162   1.583   5.064
  512SOL     OW 1562   0.367   1.100   4.225
  512SOL    HW1 1563   0.360   1.183   4.169
  512SOL    HW2 1564   0.371   1.020   4.165
  513SOL     OW 1565   0.566   0.537   4.589
  513SOL    HW1 1566   0.578   0.603   4.515
  513SOL    HW2 1567   0.612   0.571   4.672
  514SOL     OW 1568   1.252   1.348   4.112
  514SOL    HW1 1569   1.302   1.425   4.152
  514SOL    HW2 1570   1.157   1.350   4.144
  515SOL     OW 1571   1.272   1.445   4.866
  515SOL    HW1 1572   1.319   1.458   4.953
  515SOL    HW2 1573   1.206   1.371   4.875
  516SOL     OW 1574   1.582   0.639   4.196
  516SOL    HW1 1575   1.551   0.700   4.269
  516SOL    HW2 1576   1.632   0.691   4.127
  517SOL     OW 1577   0.354   1.510   5.053
  517SOL    HW1 1578   0.333   1.466   4.966
  517SOL    HW2 1579   0.451   1.536   5.056
  518SOL     OW 1580   0.402   0.751   5.322
  518SOL    HW1 1581   0.470   0.806   5.275
  518SOL    HW2 1582   0.442   0.663   5.349
  519SOL     OW 1583   1.587   0.779   5.394
  519SOL    HW1 1584   1.495   0.817   5.389
  519SOL    HW2 1585   1.647   0.826   5.329
  520SOL     OW 1586   0.573   0.870   4.753
  520SOL    HW1 1587   0.617   0.959   4.744
  520SOL    HW2 1588   0.510   0.870   4.830
  521SOL     OW 1589   1.360   0.862   4.769
  521SOL    HW1 1590   1.285   0.862   4.703
  521SOL    HW2 1591   1.397   0.770   4.778
  522SOL     OW 1592   1.209   0.525   3.999
  522SOL    HW1 1593   1.222   0.441   4.053
  522SOL    HW2 1594   1.180   0.599   4.059
  523SOL     OW 1595   0.307   0.213   4.955
  523SOL    HW1 1596   0.284   0.250   5.045
  523SOL    HW2 1597   0.277   0.118   4.949
  524SOL     OW 1598   0.037   1.310   5.006
  524SOL    HW1 1599   0.090   1.261   5.074
  524SOL    HW2 1600   0.059   1.408   5.011
  525SOL     OW 1601   0.732   0.634   4.788
  525SOL    HW1 1602   0.791   0.608   4.712
  525SOL    HW2 1603   0.704   0.730   4.777
  526SOL     OW 1604   0.307   0.063   4.342
  526SOL    HW1 1605   0.296   0.157   4.375
  526SOL    HW2 1606   0.302   0.000   4.419
  527SOL     OW 1607   1.622   0.367   4.098
  527SOL    HW1 1608   1.624   0.291   4.162
  527SOL    HW2 1609   1.574   0.444   4.138
  528SOL     OW 1610   1.023   0.766   4.690
  528SOL    HW1 1611   1.038   0.787   4.786
  528SOL    HW2 1612   0.993   0.671   4.681
  529SOL     OW 1613   0.980   1.573   5.424
  529SOL    HW1 1614   0.960   1.617   5.336
  529SOL    HW2 1615   1.019   1.482   5.408
  530SOL     OW 1616   1.540   0.274   3.849
  530SOL    HW1 1617   1.479   0.199   3.872
  530SOL    HW2 1618   1.562   0.326   3.932
  531SOL     OW 1619   1.303   0.838   3.766
  531SOL    HW1 1620   1.337   0.745   3.781
  531SOL    HW2 1621   1.321   0.865   3.671
  532SOL     OW 1622   1.068   1.333   4.573
  532SOL    HW1 1623   1.075   1.249   4.518
  532SOL    HW2 1624   1.130   1.402   4.537
  533SOL     OW 1625   0.319   0.810   4.673
  533SOL    HW1 1626   0.412   0.846   4.678
  533SOL    HW2 1627   0.313   0.725   4.725
  534SOL     OW 1628   0.339   0.509   4.730
  534SOL    HW1 1629   0.287   0.426   4.713
  534SOL    HW2 1630   0.416   0.514   4.666
  535SOL     OW 1631   1.138   0.380   5.402
  535SOL    HW1 1632   1.093   0.443   5.466
  535SOL    HW2 1633   1.231   0.411   5.385
  536SOL     OW 1634   1.160   0.207   5.201
  536SOL    HW1 1635   1.160   0.271   5.278
  536SOL    HW2 1636   1.188   0.255   5.118
  537SOL     OW 1637   0.008   1.326   3.924
  537SOL    HW1 1638  -0.085   1.347   3.893
  537SOL    HW2 1639   0.018   1.227   3.937
  538SOL     OW 1640   0.088   1.801   4.651
  538SOL    HW1 1641   0.046   1.715   4.624
  538SOL    HW2 1642   0.182   1.804   4.617
  539SOL     OW 1643   0.504   1.568   4.634
  539SOL    HW1 1644   0.570   1.642   4.643
  539SOL    HW2 1645   0.548   1.489   4.592
  540SOL     OW 1646   1.002   0.796   4.962
  540SOL    HW1 1647   1.043   0.764   5.048
  540SOL    HW2 1648   0.906   0.769   4.959
  541SOL     OW 1649   0.040   0.544   4.838
  541SOL    HW1 1650   0.125   0.511   4.797
  541SOL    HW2 1651   0.053   0.559   4.936
  542SOL     OW 1652   0.815   0.572   4.049
  542SOL    HW1 1653   0.822   0.483   4.003
  542SOL    HW2 1654   0.721   0.606   4.041
  543SOL     OW 1655   1.657   0.604   4.930
  543SOL    HW1 1656   1.619   0.535   4.992
  543SOL    HW2 1657   1.739   0.568   4.886
  544SOL     OW 1658   0.671   0.464   4.993
  544SOL    HW1 1659   0.637   0.375   4.963
  544SOL    HW2 1660   0.697   0.518   4.913
  545SOL     OW 1661   0.930   1.678   5.189
  545SOL    HW1 1662   0.906   1.660   5.094
  545SOL    HW2 1663   0.960   1.772   5.199
  546SOL     OW 1664   0.473   0.500   3.915
  546SOL    HW1 1665   0.534   0.580   3.919
  546SOL    HW2 1666   0.378   0.531   3.922
  547SOL     OW 1667   0.159   1.137   5.190
  547SOL    HW1 1668   0.181   1.076   5.266
  547SOL    HW2 1669   0.169   1.088   5.104
  548SOL     OW 1670   1.347   1.059   4.958
  548SOL    HW1 1671   1.371   0.996   4.884
  548SOL    HW2 1672   1.257   1.099   4.940
  549SOL     OW 1673   1.302   0.855   4.033
  549SOL    HW1 1674   1.216   0.824   4.075
  549SOL    HW2 1675   1.298   0.841   3.934
  550SOL     OW 1676   1.759   1.747   4.878
  550SOL    HW1 1677   1.820   1.777   4.805
  550SOL    HW2 1678   1.721   1.658   4.856
  551SOL     OW 1679   1.252   1.731   4.852
  551SOL    HW1 1680   1.336   1.736   4.798
  551SOL    HW2 1681   1.229   1.635   4.870
  552SOL     OW 1682   0.083   1.258   4.746
  552SOL    HW1 1683   0.078   1.257   4.846
  552SOL    HW2 1684   0.000   1.217   4.708
  553SOL     OW 1685   1.726   0.135   4.247
  553SOL    HW1 1686   1.799   0.118   4.180
  553SOL    HW2 1687   1.695   0.048   4.285
  554SOL     OW 1688   1.388   1.573   4.201
  554SOL    HW1 1689   1.455   1.585   4.127
  554SOL    HW2 1690   1.348   1.662   4.224
  555SOL     OW 1691   1.280   0.927   4.396
  555SOL    HW1 1692   1.340   0.846   4.398
  555SOL    HW2 1693   1.320   0.996   4.336
  556SOL     OW 1694   0.672   1.616   3.878
  556SOL    HW1 1695   0.681   1.626   3.779
  556SOL    HW2 1696   0.632   1.527   3.899
  557SOL     OW 1697   1.650   1.720   5.118
  557SOL    HW1 1698   1.703   1.730   5.034
  557SOL    HW2 1699   1.623   1.810   5.152
  558SOL     OW 1700   1.841   0.175   4.687
  558SOL    HW1 1701   1.880   0.090   4.651
  558SOL    HW2 1702   1.743   0.177   4.668
  559SOL     OW 1703   0.263   0.326   4.444
  559SOL    HW1 1704   0.184   0.377   4.410
  559SOL    HW2 1705   0.254   0.311   4.542
  560SOL     OW 1706   1.194   1.612   3.755
  560SOL    HW1 1707   1.200   1.519   3.792
  560SOL    HW2 1708   1.135   1.612   3.675
  561SOL     OW 1709   0.822   1.002   5.096
  561SOL    HW1 1710   0.862   1.001   5.004
  561SOL    HW2 1711   0.832   1.094   5.136
  562SOL     OW 1712   0.916   0.910   4.015
  562SOL    HW1 1713   0.979   0.948   3.947
  562SOL    HW2 1714   0.956   0.827   4.054
  563SOL     OW 1715   1.504   1.607   3.768
  563SOL    HW1 1716   1.412   1.644   3.775
  563SOL    HW2 1717   1.542   1.627   3.678
  564SOL     OW 1718   0.372   1.288   5.214
  564SOL    HW1 1719   0.359   1.381   5.180
  564SOL    HW2 1720   0.288   1.236   5.201
  565SOL     OW 1721   1.614   1.292   5.013
  565SOL    HW1 1722   1.674   1.295   5.093
  565SOL    HW2 1723   1.539   1.356   5.026
  566SOL     OW 1724   1.039   1.098   4.420
  566SOL    HW1 1725   0.969   1.051   4.474
  566SOL    HW2 1726   1.098   1.030   4.377
  567SOL     OW 1727   1.014   0.236   4.695
  567SOL    HW1 1728   1.006   0.200   4.602
  567SOL    HW2 1729   1.012   0.160   4.760
  568SOL     OW 1730   0.590   1.487   4.215
  568SOL    HW1 1731   0.632   1.429   4.145
  568SOL    HW2 1732   0.546   1.566   4.171
  569SOL     OW 1733   1.709   0.385   5.105
  569SOL    HW1 1734   1.782   0.454   5.109
  569SOL    HW2 1735   1.737   0.310   5.046
  570SOL     OW 1736   0.255   1.348   4.014
  570SOL    HW1 1737   0.159   1.349   3.987
  570SOL    HW2 1738   0.267   1.401   4.098
  571SOL     OW 1739   0.075   0.345   3.757
  571SOL    HW1 1740  -0.017   0.317   3.728
  571SOL    HW2 1741   0.106   0.422   3.701
  572SOL     OW 1742   1.440   0.856   5.122
  572SOL    HW1 1743   1.383   0.908   5.059
  572SOL    HW2 1744   1.536   0.868   5.098
  573SOL     OW 1745   0.072   0.166   4.042
  573SOL    HW1 1746   0.055   0.249   3.988
  573SOL    HW2 1747   0.162   0.129   4.020
  574SOL     OW 1748   1.183   1.335   3.843
  574SOL    HW1 1749   1.084   1.324   3.845
  574SOL    HW2 1750   1.217   1.350   3.936
  575SOL     OW 1751   0.613   0.842   5.155
  575SOL    HW1 1752   0.669   0.923   5.138
  575SOL    HW2 1753   0.672   0.762   5.158
  576SOL     OW 1754   1.493   1.767   4.683
  576SOL    HW1 1755   1.526   1.831   4.614
  576SOL    HW2 1756   1.559   1.761   4.758
  577SOL     OW 1757   0.390   1.741   5.284
  577SOL    HW1 1758   0.299   1.782   5.282
  577SOL    HW2 1759   0.383   1.647   5.316
  578SOL     OW 1760   1.674   0.883   4.978
  578SOL    HW1 1761   1.647   0.794   4.941
  578SOL    HW2 1762   1.675   0.951   4.905
  579SOL     OW 1763   1.225   0.325   4.173
  579SOL    HW1 1764   1.290   0.251   4.162
  579SOL    HW2 1765   1.245   0.375   4.257
  580SOL     OW 1766   0.594   0.745   4.376
  580SOL    HW1 1767   0.644   0.830   4.357
  580SOL    HW2 1768   0.506   0.747   4.328
  581SOL     OW 1769   1.777   0.342   5.366
  581SOL    HW1 1770   1.760   0.373   5.272
  581SOL    HW2 1771   1.693   0.305   5.404
  582SOL     OW 1772   1.730   0.934   5.241
  582SOL    HW1 1773   1.768   1.025   5.256
  582SOL    HW2 1774   1.722   0.917   5.142
  583SOL     OW 1775   0.859   1.374   3.740
  583SOL    HW1 1776   0.813   1.389   3.828
  583SOL    HW2 1777   0.903   1.459   3.710
  584SOL     OW 1778   0.661   1.790   4.677
  584SOL    HW1 1779   0.615   1.878   4.664
  584SOL    HW2 1780   0.760   1.802   4.670
  585SOL     OW 1781   0.859   0.956   4.585
  585SOL    HW1 1782   0.913   0.887   4.633
  585SOL    HW2 1783   0.827   1.025   4.651
  586SOL     OW 1784   1.083   0.984   3.811
  586SOL    HW1 1785   1.060   1.037   3.729
  586SOL    HW2 1786   1.164   0.928   3.792
  587SOL     OW 1787   1.861   1.569   4.575
  587SOL    HW1 1788   1.790   1.557   4.505
  587SOL    HW2 1789   1.862   1.490   4.635
  588SOL     OW 1790   0.079   1.240   4.377
  588SOL    HW1 1791   0.078   1.193   4.465
  588SOL    HW2 1792   0.161   1.212   4.326
  589SOL     OW 1793   1.824   0.192   4.951
  589SOL    HW1 1794   1.820   0.102   4.995
  589SOL    HW2 1795   1.827   0.181   4.852
  590SOL     OW 1796   0.428   0.424   4.244
  590SOL    HW1 1797   0.458   0.352   4.182
  590SOL    HW2 1798   0.389   0.384   4.327
  591SOL     OW 1799   1.705   1.487   4.828
  591SOL    HW1 1800   1.612   1.462   4.801
  591SOL    HW2 1801   1.731   1.437   4.910
  592SOL     OW 1802   0.317   0.547   5.004
  592SOL    HW1 1803   0.355   0.488   5.076
  592SOL    HW2 1804   0.357   0.521   4.916
  593SOL     OW 1805   0.812   1.586   4.411
  593SOL    HW1 1806   0.844   1.596   4.317
  593SOL    HW2 1807   0.733   1.524   4.413
  594SOL     OW 1808   1.424   0.214   4.836
  594SOL    HW1 1809   1.476   0.149   4.891
  594SOL    HW2 1810   1.375   0.277   4.897
  595SOL     OW 1811   1.001   0.034   4.878
  595SOL    HW1 1812   0.938  -0.038   4.847
  595SOL    HW2 1813   1.094  -0.002   4.878
  596SOL     OW 1814   0.770   1.330   4.025
  596SOL    HW1 1815   0.724   1.243   4.042
  596SOL    HW2 1816   0.861   1.327   4.066
  597SOL     OW 1817   0.618   1.567   5.008
  597SOL    HW1 1818   0.613   1.649   5.065
  597SOL    HW2 1819   0.707   1.564   4.963
  598SOL     OW 1820   1.352   0.052   3.892
  598SOL    HW1 1821   1.387   0.011   3.808
  598SOL    HW2 1822   1.262   0.014   3.912
  599SOL     OW 1823   1.300   0.453   4.415
  599SOL    HW1 1824   1.241   0.533   4.419
  599SOL    HW2 1825   1.315   0.418   4.508
  600SOL     OW 1826   1.593   0.221   4.606
  600SOL    HW1 1827   1.509   0.220   4.660
  600SOL    HW2 1828   1.595   0.304   4.550
  601SOL     OW 1829   0.039   1.077   4.024
  601SOL    HW1 1830   0.138   1.066   4.015
  601SOL    HW2 1831  -0.001   0.991   4.056
  602SOL     OW 1832   0.875   1.646   4.061
  602SOL    HW1 1833   0.798   1.611   4.007
  602SOL    HW2 1834   0.843   1.717   4.123
  603SOL     OW 1835   0.230   2.490   0.113
  603SOL    HW1 1836   0.137   2.488   0.150
  603SOL    HW2 1837   0.231   2.451   0.021
  604SOL     OW 1838   0.225   2.137   0.996
  604SOL    HW1 1839   0.260   2.120   1.088
  604SOL    HW2 1840   0.137   2.092   0.984
  605SOL     OW 1841   0.019   2.230   0.647
  605SOL    HW1 1842  -0.063   2.273   0.686
  605SOL    HW2 1843  -0.009   2.157   0.584
  606SOL     OW 1844   0.569   3.137   1.165
  606SOL    HW1 1845   0.476   3.130   1.128
  606SOL    HW2 1846   0.580   3.226   1.209
  607SOL     OW 1847   1.555   3.373   0.703
  607SOL    HW1 1848   1.498   3.357   0.784
  607SOL    HW2 1849   1.496   3.383   0.623
  608SOL     OW 1850   1.135   2.565   0.717
  608SOL    HW1 1851   1.192   2.643   0.692
  608SOL    HW2 1852   1.075   2.591   0.793
  609SOL     OW 1853   1.755   2.469   0.231
  609SOL    HW1 1854   1.743   2.456   0.132
  609SOL    HW2 1855   1.725   2.388   0.280
  610SOL     OW 1856   0.768   3.006   1.023
  610SOL    HW1 1857   0.690   3.023   1.083
  610SOL    HW2 1858   0.802   3.093   0.987
  611SOL     OW 1859   0.850   2.660   1.823
  611SOL    HW1 1860   0.846   2.736   1.888
  611SOL    HW2 1861   0.872   2.696   1.732
  612SOL     OW 1862   0.685   2.874   0.665
  612SOL    HW1 1863   0.754   2.858   0.735
  612SOL    HW2 1864   0.612   2.931   0.703
  613SOL     OW 1865   0.686   3.023   1.803
  613SOL    HW1 1866   0.746   3.102   1.817
  613SOL    HW2 1867   0.600   3.054   1.762
  614SOL     OW 1868   0.335   3.297   1.061
  614SOL    HW1 1869   0.257   3.266   1.008
  614SOL    HW2 1870   0.393   3.355   1.004
  615SOL     OW 1871   1.460   3.367   1.339
  615SOL    HW1 1872   1.484   3.461   1.365
  615SOL    HW2 1873   1.444   3.313   1.421
  616SOL     OW 1874   0.438   2.254   1.499
  616SOL    HW1 1875   0.520   2.198   1.508
  616SOL    HW2 1876   0.357   2.196   1.503
  617SOL     OW 1877   1.603   2.309   0.737
  617SOL    HW1 1878   1.529   2.355   0.687
  617SOL    HW2 1879   1.654   2.377   0.790
  618SOL     OW 1880   0.231   3.575   0.483
  618SOL    HW1 1881   0.265   3.652   0.537
  618SOL    HW2 1882   0.275   3.575   0.393
  619SOL     OW 1883   1.127   3.203   1.690
  619SOL    HW1 1884   1.174   3.203   1.778
  619SOL    HW2 1885   1.079   3.116   1.679
  620SOL     OW 1886   0.230   3.296   0.538
  620SOL    HW1 1887   0.204   3.392   0.538
  620SOL    HW2 1888   0.159   3.242   0.583
  621SOL     OW 1889   0.240   2.953   0.886
  621SOL    HW1 1890   0.254   2.869   0.938
  621SOL    HW2 1891   0.185   3.017   0.941
  622SOL     OW 1892   0.620   3.648   1.439
  622SOL    HW1 1893   0.528   3.631   1.474
  622SOL    HW2 1894   0.648   3.740   1.465
  623SOL     OW 1895   0.606   2.826   0.123
  623SOL    HW1 1896   0.613   2.910   0.069
  623SOL    HW2 1897   0.652   2.839   0.211
  624SOL     OW 1898   1.594   1.976   1.480
  624SOL    HW1 1899   1.576   2.043   1.408
  624SOL    HW2 1900   1.591   2.022   1.569
  625SOL     OW 1901   0.122   2.505   0.563
  625SOL    HW1 1902   0.077   2.417   0.580
  625SOL    HW2 1903   0.121   2.559   0.647
  626SOL     OW 1904   1.842   3.629   0.359
  626SOL    HW1 1905   1.896   3.600   0.439
  626SOL    HW2 1906   1.872   3.719   0.330
  627SOL     OW 1907   0.027   3.458   0.117
  627SOL    HW1 1908   0.008   3.362   0.138
  627SOL    HW2 1909  -0.006   3.516   0.192
  628SOL     OW 1910   1.689   2.784   0.612
  628SOL    HW1 1911   1.784   2.755   0.620
  628SOL    HW2 1912   1.681   2.849   0.537
  629SOL     OW 1913   1.641   2.970   0.432
  629SOL    HW1 1914   1.727   2.972   0.380
  629SOL    HW2 1915   1.655   3.017   0.520
  630SOL     OW 1916   0.113   2.599   1.597
  630SOL    HW1 1917   0.201   2.586   1.642
  630SOL    HW2 1918   0.100   2.696   1.575
  631SOL     OW 1919   0.613   3.227   0.726
  631SOL    HW1 1920   0.564   3.140   0.735
  631SOL    HW2 1921   0.590   3.270   0.639
  632SOL     OW 1922   1.293   3.090   1.423
  632SOL    HW1 1923   1.330   3.017   1.365
  632SOL    HW2 1924   1.345   3.095   1.508
  633SOL     OW 1925   0.809   1.866   0.502
  633SOL    HW1 1926   0.849   1.957   0.493
  633SOL    HW2 1927   0.709   1.874   0.508
  634SOL     OW 1928   0.197   2.838   1.264
  634SOL    HW1 1929   0.286   2.793   1.250
  634SOL    HW2 1930   0.124   2.773   1.245
  635SOL     OW 1931   1.525   2.861   0.190
  635SOL    HW1 1932   1.462   2.785   0.203
  635SOL    HW2 1933   1.573   2.879   0.276
  636SOL     OW 1934   1.187   3.654   1.616
  636SOL    HW1 1935   1.211   3.714   1.540
  636SOL    HW2 1936   1.194   3.559   1.586
  637SOL     OW 1937   0.317   2.113   1.801
  637SOL    HW1 1938   0.388   2.184   1.807
  637SOL    HW2 1939   0.229   2.152   1.829
  638SOL     OW 1940   1.466   3.279   0.953
  638SOL    HW1 1941   1.407   3.285   1.033
  638SOL    HW2 1942   1.451   3.191   0.907
  639SOL     OW 1943   1.667   3.576   0.572
  639SOL    HW1 1944   1.626   3.553   0.484
  639SOL    HW2 1945   1.649   3.502   0.637
  640SOL     OW 1946   0.598   2.591   0.270
  640SOL    HW1 1947   0.622   2.660   0.202
  640SOL    HW2 1948   0.520   2.624   0.324
  641SOL     OW 1949   1.281   2.207   0.944
  641SOL    HW1 1950   1.195   2.157   0.931
  641SOL    HW2 1951   1.343   2.153   1.000
  642SOL     OW 1952   1.576   3.524   0.307
  642SOL    HW1 1953   1.665   3.570   0.310
  642SOL    HW2 1954   1.555   3.500   0.212
  643SOL     OW 1955   0.807   2.467   1.465
  643SOL    HW1 1956   0.760   2.464   1.554
  643SOL    HW2 1957   0.756   2.412   1.399
  644SOL     OW 1958   1.394   2.331   1.674
  644SOL    HW1 1959   1.374   2.374   1.762
  644SOL    HW2 1960   1.472   2.269   1.683
  645SOL     OW 1961   0.973   2.752   1.572
  645SOL    HW1 1962   1.019   2.668   1.543
  645SOL    HW2 1963   0.917   2.786   1.497
  646SOL     OW 1964   0.991   2.272   1.242
  646SOL    HW1 1965   0.914   2.306   1.296
  646SOL    HW2 1966   0.957   2.221   1.163
  647SOL     OW 1967   1.041   2.563   0.429
  647SOL    HW1 1968   1.067   2.559   0.525
  647SOL    HW2 1969   0.956   2.512   0.415
  648SOL     OW 1970   0.076   2.673   0.789
  648SOL    HW1 1971   0.175   2.661   0.798
  648SOL    HW2 1972   0.052   2.768   0.810
  649SOL     OW 1973   0.130   3.683   1.571
  649SOL    HW1 1974   0.120   3.668   1.670
  649SOL    HW2 1975   0.044   3.719   1.535
  650SOL     OW 1976   0.865   2.210   0.195
  650SOL    HW1 1977   0.924   2.273   0.146
  650SOL    HW2 1978   0.884   2.116   0.166
  651SOL     OW 1979   1.719   2.447   1.831
  651SOL    HW1 1980   1.693   2.536   1.795
  651SOL    HW2 1981   1.717   2.379   1.758
  652SOL     OW 1982   1.362   3.006   0.545
  652SOL    HW1 1983   1.445   2.977   0.497
  652SOL    HW2 1984   1.313   3.073   0.489
  653SOL     OW 1985   0.550   2.058   0.885
  653SOL    HW1 1986   0.545   2.053   0.985
  653SOL    HW2 1987   0.552   2.154   0.856
  654SOL     OW 1988   1.008   3.318   0.477
  654SOL    HW1 1989   0.962   3.390   0.425
  654SOL    HW2 1990   1.004   3.338   0.575
  655SOL     OW 1991   0.351   3.663   0.853
  655SOL    HW1 1992   0.401   3.577   0.859
  655SOL    HW2 1993   0.416   3.740   0.850
  656SOL     OW 1994   1.795   2.928   0.873
  656SOL    HW1 1995   1.733   2.913   0.797
  656SOL    HW2 1996   1.743   2.939   0.958
  657SOL     OW 1997   1.227   3.412   1.506
  657SOL    HW1 1998   1.233   3.335   1.570
  657SOL    HW2 1999   1.175   3.386   1.426
  658SOL     OW 2000   0.321   2.805   0.242
  658SOL    HW1 2001   0.403   2.844   0.200
  658SOL    HW2 2002   0.294   2.723   0.193
  659SOL     OW 2003   1.458   2.597   0.728
  659SOL    HW1 2004   1.453   2.532   0.803
  659SOL    HW2 2005   1.538   2.656   0.741
  660SOL     OW 2006   0.461   3.128   1.727
  660SOL    HW1 2007   0.411   3.129   1.641
  660SOL    HW2 2008   0.398   3.110   1.803
  661SOL     OW 2009   1.111   3.638   0.237
  661SOL    HW1 2010   1.051   3.576   0.287
  661SOL    HW2 2011   1.142   3.594   0.152
  662SOL     OW 2012   0.202   2.147   1.498
  662SOL    HW1 2013   0.122   2.207   1.485
  662SOL    HW2 2014   0.192   2.098   1.584
  663SOL     OW 2015   1.632   3.239   0.081
  663SOL    HW1 2016   1.600   3.333   0.071
  663SOL    HW2 2017   1.556   3.176   0.069
  664SOL     OW 2018   0.464   3.605   0.323
  664SOL    HW1 2019   0.497   3.644   0.409
  664SOL    HW2 2020   0.540   3.598   0.258
  665SOL     OW 2021   1.400   1.969   0.426
  665SOL    HW1 2022   1.376   1.932   0.336
  665SOL    HW2 2023   1.499   1.985   0.430
  666SOL     OW 2024   0.249   3.647   1.241
  666SOL    HW1 2025   0.306   3.582   1.291
  666SOL    HW2 2026   0.233   3.614   1.148
  667SOL     OW 2027   0.940   3.560   0.904
  667SOL    HW1 2028   1.020   3.503   0.925
  667SOL    HW2 2029   0.891   3.520   0.827
  668SOL     OW 2030   0.382   2.562   0.480
  668SOL    HW1 2031   0.427   2.472   0.477
  668SOL    HW2 2032   0.288   2.551   0.513
  669SOL     OW 2033   1.547   2.084   1.729
  669SOL    HW1 2034   1.542   2.121   1.821
  669SOL    HW2 2035   1.475   2.015   1.717
  670SOL     OW 2036   0.614   1.984   0.117
  670SOL    HW1 2037   0.712   1.962   0.124
  670SOL    HW2 2038   0.583   1.967   0.024
  671SOL     OW 2039   0.781   2.126   1.749
  671SOL    HW1 2040   0.848   2.065   1.792
  671SOL    HW2 2041   0.708   2.145   1.814
  672SOL     OW 2042   0.888   3.376   1.195
  672SOL    HW1 2043   0.865   3.351   1.101
  672SOL    HW2 2044   0.949   3.307   1.234
  673SOL     OW 2045   1.351   2.452   1.433
  673SOL    HW1 2046   1.379   2.409   1.518
  673SOL    HW2 2047   1.376   2.548   1.434
  674SOL     OW 2048   0.803   3.264   0.924
  674SOL    HW1 2049   0.893   3.278   0.882
  674SOL    HW2 2050   0.732   3.266   0.853
  675SOL     OW 2051   0.922   2.365   0.899
  675SOL    HW1 2052   0.897   2.356   0.803
  675SOL    HW2 2053   0.970   2.283   0.930
  676SOL     OW 2054   0.539   1.926   0.512
  676SOL    HW1 2055   0.458   1.927   0.570
  676SOL    HW2 2056   0.542   2.009   0.457
  677SOL     OW 2057   1.434   3.050   0.041
  677SOL    HW1 2058   1.466   2.974   0.098
  677SOL    HW2 2059   1.342   3.077   0.071
  678SOL     OW 2060   0.297   1.897   0.171
  678SOL    HW1 2061   0.346   1.981   0.150
  678SOL    HW2 2062   0.359   1.832   0.216
  679SOL     OW 2063   0.935   2.098   0.480
  679SOL    HW1 2064   0.887   2.139   0.402
  679SOL    HW2 2065   1.034   2.096   0.461
  680SOL     OW 2066   1.076   2.545   1.464
  680SOL    HW1 2067   0.996   2.484   1.467
  680SOL    HW2 2068   1.157   2.492   1.440
  681SOL     OW 2069   1.227   3.432   0.793
  681SOL    HW1 2070   1.248   3.506   0.728
  681SOL    HW2 2071   1.295   3.432   0.866
  682SOL     OW 2072   0.459   3.014   0.741
  682SOL    HW1 2073   0.388   2.987   0.806
  682SOL    HW2 2074   0.433   2.986   0.648
  683SOL     OW 2075   1.271   3.659   0.591
  683SOL    HW1 2076   1.315   3.723   0.527
  683SOL    HW2 2077   1.221   3.711   0.661
  684SOL     OW 2078   1.032   2.411   0.016
  684SOL    HW1 2079   0.991   2.493  -0.023
  684SOL    HW2 2080   1.096   2.437   0.089
  685SOL     OW 2081   0.078   2.418   1.386
  685SOL    HW1 2082   0.170   2.417   1.345
  685SOL    HW2 2083   0.072   2.492   1.453
  686SOL     OW 2084   0.561   2.084   1.147
  686SOL    HW1 2085   0.599   2.000   1.184
  686SOL    HW2 2086   0.473   2.103   1.191
  687SOL     OW 2087   0.866   2.316   0.642
  687SOL    HW1 2088   0.834   2.388   0.580
  687SOL    HW2 2089   0.890   2.235   0.589
  688SOL     OW 2090   1.017   1.901   0.753
  688SOL    HW1 2091   0.945   1.906   0.684
  688SOL    HW2 2092   0.993   1.832   0.822
  689SOL     OW 2093   1.429   3.035   0.867
  689SOL    HW1 2094   1.374   2.951   0.860
  689SOL    HW2 2095   1.455   3.064   0.775
  690SOL     OW 2096   1.466   2.452   0.992
  690SOL    HW1 2097   1.436   2.357   0.999
  690SOL    HW2 2098   1.539   2.468   1.058
  691SOL     OW 2099   1.857   2.695   0.377
  691SOL    HW1 2100   1.899   2.631   0.441
  691SOL    HW2 2101   1.819   2.644   0.299
  692SOL     OW 2102   0.488   3.247   0.174
  692SOL    HW1 2103   0.401   3.232   0.221
  692SOL    HW2 2104   0.471   3.273   0.079
  693SOL     OW 2105   1.664   3.142   0.657
  693SOL    HW1 2106   1.763   3.150   0.671
  693SOL    HW2 2107   1.619   3.226   0.688
  694SOL     OW 2108   1.390   2.437   0.078
  694SOL    HW1 2109   1.336   2.416   0.159
  694SOL    HW2 2110   1.481   2.396   0.087
  695SOL     OW 2111   0.527   2.118   0.328
  695SOL    HW1 2112   0.554   2.059   0.253
  695SOL    HW2 2113   0.527   2.213   0.297
  696SOL     OW 2114   1.754   3.085   1.588
  696SOL    HW1 2115   1.845   3.046   1.575
  696SOL    HW2 2116   1.762   3.181   1.612
  697SOL     OW 2117   1.064   3.209   1.340
  697SOL    HW1 2118   0.984   3.186   1.395
  697SOL    HW2 2119   1.147   3.183   1.389
  698SOL     OW 2120   1.592   3.491   1.625
  698SOL    HW1 2121   1.619   3.525   1.535
  698SOL    HW2 2122   1.671   3.453   1.671
  699SOL     OW 2123   1.111   3.057   1.100
  699SOL    HW1 2124   1.071   3.101   1.181
  699SOL    HW2 2125   1.070   3.094   1.017
  700SOL     OW 2126   1.638   2.961   1.079
  700SOL    HW1 2127   1.643   3.042   1.138
  700SOL    HW2 2128   1.552   2.963   1.028
  701SOL     OW 2129   0.915   1.951   1.402
  701SOL    HW1 2130   0.940   1.931   1.307
  701SOL    HW2 2131   0.987   2.007   1.444
  702SOL     OW 2132   0.980   2.978   1.719
  702SOL    HW1 2133   0.881   2.984   1.729
  702SOL    HW2 2134   1.003   2.898   1.663
  703SOL     OW 2135   0.705   2.912   0.368
  703SOL    HW1 2136   0.691   2.919   0.467
  703SOL    HW2 2137   0.789   2.861   0.350
  704SOL     OW 2138   0.410   2.675   1.251
  704SOL    HW1 2139   0.496   2.687   1.301
  704SOL    HW2 2140   0.368   2.588   1.278
  705SOL     OW 2141   1.274   2.248   1.262
  705SOL    HW1 2142   1.295   2.322   1.326
  705SOL    HW2 2143   1.185   2.265   1.219
  706SOL     OW 2144   0.064   3.426   1.331
  706SOL    HW1 2145   0.018   3.508   1.297
  706SOL    HW2 2146   0.162   3.445   1.340
  707SOL     OW 2147   0.367   2.962   0.501
  707SOL    HW1 2148   0.360   3.045   0.445
  707SOL    HW2 2149   0.371   2.882   0.441
  708SOL     OW 2150   0.566   2.399   0.865
  708SOL    HW1 2151   0.578   2.465   0.791
  708SOL    HW2 2152   0.612   2.433   0.948
  709SOL     OW 2153   1.252   3.210   0.388
  709SOL    HW1 2154   1.302   3.287   0.428
  709SOL    HW2 2155   1.157   3.212   0.420
  710SOL     OW 2156   1.272   3.307   1.142
  710SOL    HW1 2157   1.319   3.320   1.229
  710SOL    HW2 2158   1.206   3.233   1.151
  711SOL     OW 2159   1.582   2.501   0.472
  711SOL    HW1 2160   1.551   2.562   0.545
  711SOL    HW2 2161   1.632   2.553   0.403
  712SOL     OW 2162   0.354   3.372   1.329
  712SOL    HW1 2163   0.333   3.328   1.242
  712SOL    HW2 2164   0.451   3.398   1.332
  713SOL     OW 2165   0.402   2.613   1.598
  713SOL    HW1 2166   0.470   2.668   1.551
  713SOL    HW2 2167   0.442   2.525   1.625
  714SOL     OW 2168   1.587   2.641   1.670
  714SOL    HW1 2169   1.495   2.679   1.665
  714SOL    HW2 2170   1.647   2.688   1.605
  715SOL     OW 2171   1.013   1.967   1.770
  715SOL    HW1 2172   1.019   2.052   1.718
  715SOL    HW2 2173   1.045   1.891   1.713
  716SOL     OW 2174   0.504   1.912   1.740
  716SOL    HW1 2175   0.462   1.855   1.670
  716SOL    HW2 2176   0.438   1.981   1.772
  717SOL     OW 2177   0.573   2.732   1.029
  717SOL    HW1 2178   0.617   2.821   1.020
  717SOL    HW2 2179   0.510   2.732   1.106
  718SOL     OW 2180   1.360   2.724   1.045
  718SOL    HW1 2181   1.285   2.724   0.979
  718SOL    HW2 2182   1.397   2.632   1.054
  719SOL     OW 2183   1.209   2.387   0.275
  719SOL    HW1 2184   1.222   2.303   0.329
  719SOL    HW2 2185   1.180   2.461   0.335
  720SOL     OW 2186   0.307   2.075   1.231
  720SOL    HW1 2187   0.284   2.112   1.321
  720SOL    HW2 2188   0.277   1.980   1.225
  721SOL     OW 2189   0.037   3.172   1.282
  721SOL    HW1 2190   0.090   3.123   1.350
  721SOL    HW2 2191   0.059   3.270   1.287
  722SOL     OW 2192   0.732   2.496   1.064
  722SOL    HW1 2193   0.791   2.470   0.988
  722SOL    HW2 2194   0.704   2.592   1.053
  723SOL     OW 2195   1.728   2.797   1.854
  723SOL    HW1 2196   1.682   2.790   1.765
  723SOL    HW2 2197   1.666   2.841   1.920
  724SOL     OW 2198   0.307   1.925   0.618
  724SOL    HW1 2199   0.296   2.019   0.651
  724SOL    HW2 2200   0.302   1.862   0.695
  725SOL     OW 2201   1.622   2.229   0.374
  725SOL    HW1 2202   1.624   2.153   0.438
  725SOL    HW2 2203   1.574   2.306   0.414
  726SOL     OW 2204   1.023   2.628   0.966
  726SOL    HW1 2205   1.038   2.649   1.062
  726SOL    HW2 2206   0.993   2.533   0.957
  727SOL     OW 2207   0.980   3.435   1.700
  727SOL    HW1 2208   0.960   3.479   1.612
  727SOL    HW2 2209   1.019   3.344   1.684
  728SOL     OW 2210   1.859   3.380   1.605
  728SOL    HW1 2211   1.873   3.407   1.510
  728SOL    HW2 2212   1.942   3.402   1.658
  729SOL     OW 2213   0.350   2.760   1.804
  729SOL    HW1 2214   0.426   2.804   1.852
  729SOL    HW2 2215   0.385   2.713   1.722
  730SOL     OW 2216   1.540   2.136   0.125
  730SOL    HW1 2217   1.479   2.061   0.148
  730SOL    HW2 2218   1.562   2.188   0.208
  731SOL     OW 2219   1.303   2.700   0.042
  731SOL    HW1 2220   1.337   2.607   0.057
  731SOL    HW2 2221   1.321   2.727  -0.053
  732SOL     OW 2222   1.068   3.195   0.849
  732SOL    HW1 2223   1.075   3.111   0.794
  732SOL    HW2 2224   1.130   3.264   0.813
  733SOL     OW 2225   0.319   2.672   0.949
  733SOL    HW1 2226   0.412   2.708   0.954
  733SOL    HW2 2227   0.313   2.587   1.001
  734SOL     OW 2228   0.339   2.371   1.006
  734SOL    HW1 2229   0.287   2.288   0.989
  734SOL    HW2 2230   0.416   2.376   0.942
  735SOL     OW 2231   1.138   2.242   1.678
  735SOL    HW1 2232   1.093   2.305   1.742
  735SOL    HW2 2233   1.231   2.273   1.661
  736SOL     OW 2234   1.160   2.069   1.477
  736SOL    HW1 2235   1.160   2.133   1.554
  736SOL    HW2 2236   1.188   2.117   1.394
  737SOL     OW 2237   0.008   3.188   0.200
  737SOL    HW1 2238  -0.085   3.209   0.169
  737SOL    HW2 2239   0.018   3.089   0.213
  738SOL     OW 2240   0.088   3.663   0.927
  738SOL    HW1 2241   0.046   3.577   0.900
  738SOL    HW2 2242   0.182   3.666   0.893
  739SOL     OW 2243   0.504   3.430   0.910
  739SOL    HW1 2244   0.570   3.504   0.919
  739SOL    HW2 2245   0.548   3.351   0.868
  740SOL     OW 2246   1.002   2.658   1.238
  740SOL    HW1 2247   1.043   2.626   1.324
  740SOL    HW2 2248   0.906   2.631   1.235
  741SOL     OW 2249   0.040   2.406   1.114
  741SOL    HW1 2250   0.125   2.373   1.073
  741SOL    HW2 2251   0.053   2.421   1.212
  742SOL     OW 2252   0.189   2.382   1.722
  742SOL    HW1 2253   0.248   2.342   1.652
  742SOL    HW2 2254   0.131   2.453   1.681
  743SOL     OW 2255   1.369   2.812   1.660
  743SOL    HW1 2256   1.408   2.901   1.680
  743SOL    HW2 2257   1.379   2.792   1.563
  744SOL     OW 2258   0.815   2.434   0.325
  744SOL    HW1 2259   0.822   2.345   0.279
  744SOL    HW2 2260   0.721   2.468   0.317
  745SOL     OW 2261   1.657   2.466   1.206
  745SOL    HW1 2262   1.619   2.397   1.268
  745SOL    HW2 2263   1.739   2.430   1.162
  746SOL     OW 2264   0.252   3.426   1.744
  746SOL    HW1 2265   0.222   3.483   1.820
  746SOL    HW2 2266   0.245   3.329   1.770
  747SOL     OW 2267   0.671   2.326   1.269
  747SOL    HW1 2268   0.637   2.237   1.239
  747SOL    HW2 2269   0.697   2.380   1.189
  748SOL     OW 2270   0.930   3.540   1.465
  748SOL    HW1 2271   0.906   3.522   1.370
  748SOL    HW2 2272   0.960   3.634   1.475
  749SOL     OW 2273   0.473   2.362   0.191
  749SOL    HW1 2274   0.534   2.442   0.195
  749SOL    HW2 2275   0.378   2.393   0.198
  750SOL     OW 2276   0.159   2.999   1.466
  750SOL    HW1 2277   0.181   2.938   1.542
  750SOL    HW2 2278   0.169   2.950   1.380
  751SOL     OW 2279   1.347   2.921   1.234
  751SOL    HW1 2280   1.371   2.858   1.160
  751SOL    HW2 2281   1.257   2.961   1.216
  752SOL     OW 2282   1.302   2.717   0.309
  752SOL    HW1 2283   1.216   2.686   0.351
  752SOL    HW2 2284   1.298   2.703   0.210
  753SOL     OW 2285   1.759   3.609   1.154
  753SOL    HW1 2286   1.820   3.639   1.081
  753SOL    HW2 2287   1.721   3.520   1.132
  754SOL     OW 2288   1.252   3.593   1.128
  754SOL    HW1 2289   1.336   3.598   1.074
  754SOL    HW2 2290   1.229   3.497   1.146
  755SOL     OW 2291   0.083   3.120   1.022
  755SOL    HW1 2292   0.078   3.119   1.122
  755SOL    HW2 2293   0.000   3.079   0.984
  756SOL     OW 2294   0.688   3.524   1.716
  756SOL    HW1 2295   0.632   3.605   1.725
  756SOL    HW2 2296   0.740   3.528   1.630
  757SOL     OW 2297   0.903   1.948   0.133
  757SOL    HW1 2298   0.954   1.949   0.047
  757SOL    HW2 2299   0.959   1.906   0.204
  758SOL     OW 2300   1.726   1.997   0.523
  758SOL    HW1 2301   1.799   1.980   0.456
  758SOL    HW2 2302   1.695   1.910   0.561
  759SOL     OW 2303   1.388   3.435   0.477
  759SOL    HW1 2304   1.455   3.447   0.403
  759SOL    HW2 2305   1.348   3.524   0.500
  760SOL     OW 2306   0.130   3.656   1.851
  760SOL    HW1 2307   0.089   3.582   1.904
  760SOL    HW2 2308   0.194   3.707   1.909
  761SOL     OW 2309   1.280   2.789   0.672
  761SOL    HW1 2310   1.340   2.708   0.674
  761SOL    HW2 2311   1.320   2.858   0.612
  762SOL     OW 2312   0.830   3.135   1.422
  762SOL    HW1 2313   0.825   3.168   1.517
  762SOL    HW2 2314   0.744   3.154   1.376
  763SOL     OW 2315   0.672   3.478   0.154
  763SOL    HW1 2316   0.681   3.488   0.055
  763SOL    HW2 2317   0.632   3.389   0.175
  764SOL     OW 2318   1.650   3.582   1.394
  764SOL    HW1 2319   1.703   3.592   1.310
  764SOL    HW2 2320   1.623   3.672   1.428
  765SOL     OW 2321   1.841   2.037   0.963
  765SOL    HW1 2322   1.880   1.952   0.927
  765SOL    HW2 2323   1.743   2.039   0.944
  766SOL     OW 2324   0.263   2.188   0.720
  766SOL    HW1 2325   0.184   2.239   0.686
  766SOL    HW2 2326   0.254   2.173   0.818
  767SOL     OW 2327   1.194   3.474   0.031
  767SOL    HW1 2328   1.200   3.381   0.068
  767SOL    HW2 2329   1.135   3.474  -0.049
  768SOL     OW 2330   0.822   2.864   1.372
  768SOL    HW1 2331   0.862   2.863   1.280
  768SOL    HW2 2332   0.832   2.956   1.412
  769SOL     OW 2333   0.916   2.772   0.291
  769SOL    HW1 2334   0.979   2.810   0.223
  769SOL    HW2 2335   0.956   2.689   0.330
  770SOL     OW 2336   1.504   3.469   0.044
  770SOL    HW1 2337   1.412   3.506   0.051
  770SOL    HW2 2338   1.542   3.489  -0.046
  771SOL     OW 2339   0.372   3.150   1.490
  771SOL    HW1 2340   0.359   3.243   1.456
  771SOL    HW2 2341   0.288   3.098   1.477
  772SOL     OW 2342   1.614   3.154   1.289
  772SOL    HW1 2343   1.674   3.157   1.369
  772SOL    HW2 2344   1.539   3.218   1.302
  773SOL     OW 2345   1.039   2.960   0.696
  773SOL    HW1 2346   0.969   2.913   0.750
  773SOL    HW2 2347   1.098   2.892   0.653
  774SOL     OW 2348   1.014   2.098   0.971
  774SOL    HW1 2349   1.006   2.062   0.878
  774SOL    HW2 2350   1.012   2.022   1.036
  775SOL     OW 2351   0.590   3.349   0.491
  775SOL    HW1 2352   0.632   3.291   0.421
  775SOL    HW2 2353   0.546   3.428   0.447
  776SOL     OW 2354   1.709   2.247   1.381
  776SOL    HW1 2355   1.782   2.316   1.385
  776SOL    HW2 2356   1.737   2.172   1.322
  777SOL     OW 2357   0.255   3.210   0.290
  777SOL    HW1 2358   0.159   3.211   0.263
  777SOL    HW2 2359   0.267   3.263   0.374
  778SOL     OW 2360   0.105   2.875   1.726
  778SOL    HW1 2361   0.028   2.842   1.780
  778SOL    HW2 2362   0.190   2.845   1.768
  779SOL     OW 2363   0.672   2.065   1.489
  779SOL    HW1 2364   0.762   2.049   1.449
  779SOL    HW2 2365   0.680   2.070   1.588
  780SOL     OW 2366   0.075   2.207   0.033
  780SOL    HW1 2367  -0.017   2.179   0.004
  780SOL    HW2 2368   0.106   2.284  -0.023
  781SOL     OW 2369   1.440   2.718   1.398
  781SOL    HW1 2370   1.383   2.770   1.335
  781SOL    HW2 2371   1.536   2.730   1.374
  782SOL     OW 2372   0.072   2.028   0.318
  782SOL    HW1 2373   0.055   2.111   0.264
  782SOL    HW2 2374   0.162   1.991   0.296
  783SOL     OW 2375   1.183   3.197   0.119
  783SOL    HW1 2376   1.084   3.186   0.121
  783SOL    HW2 2377   1.217   3.212   0.212
  784SOL     OW 2378   0.613   2.704   1.431
  784SOL    HW1 2379   0.669   2.785   1.414
  784SOL    HW2 2380   0.672   2.624   1.434
  785SOL     OW 2381   1.493   3.629   0.959
  785SOL    HW1 2382   1.526   3.693   0.890
  785SOL    HW2 2383   1.559   3.623   1.034
  786SOL     OW 2384   0.716   2.427   1.708
  786SOL    HW1 2385   0.735   2.492   1.782
  786SOL    HW2 2386   0.776   2.347   1.717
  787SOL     OW 2387   1.450   3.082   1.633
  787SOL    HW1 2388   1.441   3.072   1.732
  787SOL    HW2 2389   1.546   3.075   1.607
  788SOL     OW 2390   0.390   3.603   1.560
  788SOL    HW1 2391   0.299   3.644   1.558
  788SOL    HW2 2392   0.383   3.509   1.592
  789SOL     OW 2393   1.674   2.745   1.254
  789SOL    HW1 2394   1.647   2.656   1.217
  789SOL    HW2 2395   1.675   2.813   1.181
  790SOL     OW 2396   1.225   2.187   0.449
  790SOL    HW1 2397   1.290   2.113   0.438
  790SOL    HW2 2398   1.245   2.237   0.533
  791SOL     OW 2399   0.594   2.607   0.652
  791SOL    HW1 2400   0.644   2.692   0.633
  791SOL    HW2 2401   0.506   2.609   0.604
  792SOL     OW 2402   1.777   2.204   1.642
  792SOL    HW1 2403   1.760   2.235   1.548
  792SOL    HW2 2404   1.693   2.167   1.680
  793SOL     OW 2405   1.730   2.796   1.517
  793SOL    HW1 2406   1.768   2.887   1.532
  793SOL    HW2 2407   1.722   2.779   1.418
  794SOL     OW 2408   0.859   3.236   0.016
  794SOL    HW1 2409   0.813   3.251   0.104
  794SOL    HW2 2410   0.903   3.321  -0.014
  795SOL     OW 2411   0.661   3.652   0.953
  795SOL    HW1 2412   0.615   3.740   0.940
  795SOL    HW2 2413   0.760   3.664   0.946
  796SOL     OW 2414   0.859   2.818   0.861
  796SOL    HW1 2415   0.913   2.749   0.909
  796SOL    HW2 2416   0.827   2.887   0.927
  797SOL     OW 2417   1.083   2.846   0.087
  797SOL    HW1 2418   1.060   2.899   0.005
  797SOL    HW2 2419   1.164   2.790   0.068
  798SOL     OW 2420   1.861   3.431   0.851
  798SOL    HW1 2421   1.790   3.419   0.781
  798SOL    HW2 2422   1.862   3.352   0.911
  799SOL     OW 2423   0.221   3.176   1.844
  799SOL    HW1 2424   0.156   3.103   1.823
  799SOL    HW2 2425   0.225   3.190   1.942
  800SOL     OW 2426   0.079   3.102   0.653
  800SOL    HW1 2427   0.078   3.055   0.741
  800SOL    HW2 2428   0.161   3.074   0.602
  801SOL     OW 2429   0.672   3.253   1.624
  801SOL    HW1 2430   0.594   3.203   1.662
  801SOL    HW2 2431   0.669   3.348   1.655
  802SOL     OW 2432   1.824   2.054   1.227
  802SOL    HW1 2433   1.820   1.964   1.271
  802SOL    HW2 2434   1.827   2.043   1.128
  803SOL     OW 2435   0.428   2.286   0.520
  803SOL    HW1 2436   0.458   2.214   0.458
  803SOL    HW2 2437   0.389   2.246   0.603
  804SOL     OW 2438   1.705   3.349   1.104
  804SOL    HW1 2439   1.612   3.324   1.077
  804SOL    HW2 2440   1.731   3.299   1.186
  805SOL     OW 2441   0.317   2.409   1.280
  805SOL    HW1 2442   0.355   2.350   1.352
  805SOL    HW2 2443   0.357   2.383   1.192
  806SOL     OW 2444   0.812   3.448   0.687
  806SOL    HW1 2445   0.844   3.458   0.593
  806SOL    HW2 2446   0.733   3.386   0.689
  807SOL     OW 2447   1.424   2.076   1.112
  807SOL    HW1 2448   1.476   2.011   1.167
  807SOL    HW2 2449   1.375   2.139   1.173
  808SOL     OW 2450   1.001   1.896   1.154
  808SOL    HW1 2451   0.938   1.824   1.123
  808SOL    HW2 2452   1.094   1.860   1.154
  809SOL     OW 2453   0.770   3.192   0.301
  809SOL    HW1 2454   0.724   3.105   0.318
  809SOL    HW2 2455   0.861   3.189   0.342
  810SOL     OW 2456   0.618   3.429   1.284
  810SOL    HW1 2457   0.613   3.511   1.341
  810SOL    HW2 2458   0.707   3.426   1.239
  811SOL     OW 2459   1.352   1.914   0.168
  811SOL    HW1 2460   1.387   1.873   0.084
  811SOL    HW2 2461   1.262   1.876   0.188
  812SOL     OW 2462   1.300   2.315   0.691
  812SOL    HW1 2463   1.241   2.395   0.695
  812SOL    HW2 2464   1.315   2.280   0.784
  813SOL     OW 2465   1.593   2.083   0.882
  813SOL    HW1 2466   1.509   2.082   0.936
  813SOL    HW2 2467   1.595   2.166   0.826
  814SOL     OW 2468   0.039   2.939   0.300
  814SOL    HW1 2469   0.138   2.928   0.291
  814SOL    HW2 2470  -0.001   2.853   0.332
  815SOL     OW 2471   0.875   3.508   0.337
  815SOL    HW1 2472   0.798   3.473   0.283
  815SOL    HW2 2473   0.843   3.579   0.399
  816SOL     OW 2474   0.230   2.490   1.975
  816SOL    HW1 2475   0.137   2.488   2.012
  816SOL    HW2 2476   0.231   2.451   1.883
  817SOL     OW 2477   0.225   2.137   2.858
  817SOL    HW1 2478   0.260   2.120   2.950
  817SOL    HW2 2479   0.137   2.092   2.846
  818SOL     OW 2480   0.019   2.230   2.509
  818SOL    HW1 2481  -0.063   2.273   2.548
  818SOL    HW2 2482  -0.009   2.157   2.446
  819SOL     OW 2483   0.569   3.137   3.027
  819SOL    HW1 2484   0.476   3.130   2.990
  819SOL    HW2 2485   0.580   3.226   3.071
  820SOL     OW 2486   1.555   3.373   2.565
  820SOL    HW1 2487   1.498   3.357   2.646
  820SOL    HW2 2488   1.496   3.383   2.485
  821SOL     OW 2489   1.135   2.565   2.579
  821SOL    HW1 2490   1.192   2.643   2.554
  821SOL    HW2 2491   1.075   2.591   2.655
  822SOL     OW 2492   1.755   2.469   2.093
  822SOL    HW1 2493   1.743   2.456   1.994
  822SOL    HW2 2494   1.725   2.388   2.142
  823SOL     OW 2495   0.768   3.006   2.885
  823SOL    HW1 2496   0.690   3.023   2.945
  823SOL    HW2 2497   0.802   3.093   2.849
  824SOL     OW 2498   0.850   2.660   3.685
  824SOL    HW1 2499   0.846   2.736   3.750
  824SOL    HW2 2500   0.872   2.696   3.594
  825SOL     OW 2501   0.685   2.874   2.527
  825SOL    HW1 2502   0.754   2.858   2.597
  825SOL    HW2 2503   0.612   2.931   2.565
  826SOL     OW 2504   0.686   3.023   3.665
  826SOL    HW1 2505   0.746   3.102   3.679
  826SOL    HW2 2506   0.600   3.054   3.624
  827SOL     OW 2507   0.335   3.297   2.923
  827SOL    HW1 2508   0.257   3.266   2.870
  827SOL    HW2 2509   0.393   3.355   2.866
  828SOL     OW 2510   1.460   3.367   3.201
  828SOL    HW1 2511   1.484   3.461   3.227
  828SOL    HW2 2512   1.444   3.313   3.283
  829SOL     OW 2513   0.438   2.254   3.361
  829SOL    HW1 2514   0.520   2.198   3.370
  829SOL    HW2 2515   0.357   2.196   3.365
  830SOL     OW 2516   1.603   2.309   2.599
  830SOL    HW1 2517   1.529   2.355   2.549
  830SOL    HW2 2518   1.654   2.377   2.652
  831SOL     OW 2519   0.231   3.575   2.345
  831SOL    HW1 2520   0.265   3.652   2.399
  831SOL    HW2 2521   0.275   3.575   2.255
  832SOL     OW 2522   1.127   3.203   3.552
  832SOL    HW1 2523   1.174   3.203   3.640
  832SOL    HW2 2524   1.079   3.116   3.541
  833SOL     OW 2525   0.230   3.296   2.400
  833SOL    HW1 2526   0.204   3.392   2.400
  833SOL    HW2 2527   0.159   3.242   2.445
  834SOL     OW 2528   0.240   2.953   2.748
  834SOL    HW1 2529   0.254   2.869   2.800
  834SOL    HW2 2530   0.185   3.017   2.803
  835SOL     OW 2531   0.620   3.648   3.301
  835SOL    HW1 2532   0.528   3.631   3.336
  835SOL    HW2 2533   0.648   3.740   3.327
  836SOL     OW 2534   0.606   2.826   1.985
  836SOL    HW1 2535   0.613   2.910   1.931
  836SOL    HW2 2536   0.652   2.839   2.073
  837SOL     OW 2537   1.594   1.976   3.342
  837SOL    HW1 2538   1.576   2.043   3.270
  837SOL    HW2 2539   1.591   2.022   3.431
  838SOL     OW 2540   0.122   2.505   2.425
  838SOL    HW1 2541   0.077   2.417   2.442
  838SOL    HW2 2542   0.121   2.559   2.509
  839SOL     OW 2543   1.842   3.629   2.221
  839SOL    HW1 2544   1.896   3.600   2.301
  839SOL    HW2 2545   1.872   3.719   2.192
  840SOL     OW 2546   0.027   3.458   1.979
  840SOL    HW1 2547   0.008   3.362   2.000
  840SOL    HW2 2548  -0.006   3.516   2.054
  841SOL     OW 2549   1.689   2.784   2.474
  841SOL    HW1 2550   1.784   2.755   2.482
  841SOL    HW2 2551   1.681   2.849   2.399
  842SOL     OW 2552   1.641   2.970   2.294
  842SOL    HW1 2553   1.727   2.972   2.242
  842SOL    HW2 2554   1.655   3.017   2.382
  843SOL     OW 2555   0.113   2.599   3.459
  843SOL    HW1 2556   0.201   2.586   3.504
  843SOL    HW2 2557   0.100   2.696   3.437
  844SOL     OW 2558   0.613   3.227   2.588
  844SOL    HW1 2559   0.564   3.140   2.597
  844SOL    HW2 2560   0.590   3.270   2.501
  845SOL     OW 2561   1.293   3.090   3.285
  845SOL    HW1 2562   1.330   3.017   3.227
  845SOL    HW2 2563   1.345   3.095   3.370
  846SOL     OW 2564   0.809   1.866   2.364
  846SOL    HW1 2565   0.849   1.957   2.355
  846SOL    HW2 2566   0.709   1.874   2.370
  847SOL     OW 2567   0.197   2.838   3.126
  847SOL    HW1 2568   0.286   2.793   3.112
  847SOL    HW2 2569   0.124   2.773   3.107
  848SOL     OW 2570   1.525   2.861   2.052
  848SOL    HW1 2571   1.462   2.785   2.065
  848SOL    HW2 2572   1.573   2.879   2.138
  849SOL     OW 2573   1.187   3.654   3.478
  849SOL    HW1 2574   1.211   3.714   3.402
  849SOL    HW2 2575   1.194   3.559   3.448
  850SOL     OW 2576   0.317   2.113   3.663
  850SOL    HW1 2577   0.388   2.184   3.669
  850SOL    HW2 2578   0.229   2.152   3.691
  851SOL     OW 2579   1.466   3.279   2.815
  851SOL    HW1 2580   1.407   3.285   2.895
  851SOL    HW2 2581   1.451   3.191   2.769
  852SOL     OW 2582   1.667   3.576   2.434
  852SOL    HW1 2583   1.626   3.553   2.346
  852SOL    HW2 2584   1.649   3.502   2.499
  853SOL     OW 2585   0.598   2.591   2.132
  853SOL    HW1 2586   0.622   2.660   2.064
  853SOL    HW2 2587   0.520   2.624   2.186
  854SOL     OW 2588   1.281   2.207   2.806
  854SOL    HW1 2589   1.195   2.157   2.793
  854SOL    HW2 2590   1.343   2.153   2.862
  855SOL     OW 2591   1.576   3.524   2.169
  855SOL    HW1 2592   1.665   3.570   2.172
  855SOL    HW2 2593   1.555   3.500   2.074
  856SOL     OW 2594   0.807   2.467   3.327
  856SOL    HW1 2595   0.760   2.464   3.416
  856SOL    HW2 2596   0.756   2.412   3.261
  857SOL     OW 2597   1.394   2.331   3.536
  857SOL    HW1 2598   1.374   2.374   3.624
  857SOL    HW2 2599   1.472   2.269   3.545
  858SOL     OW 2600   0.973   2.752   3.434
  858SOL    HW1 2601   1.019   2.668   3.405
  858SOL    HW2 2602   0.917   2.786   3.359
  859SOL     OW 2603   0.991   2.272   3.104
  859SOL    HW1 2604   0.914   2.306   3.158
  859SOL    HW2 2605   0.957   2.221   3.025
  860SOL     OW 2606   1.041   2.563   2.291
  860SOL    HW1 2607   1.067   2.559   2.387
  860SOL    HW2 2608   0.956   2.512   2.277
  861SOL     OW 2609   0.076   2.673   2.651
  861SOL    HW1 2610   0.175   2.661   2.660
  861SOL    HW2 2611   0.052   2.768   2.672
  862SOL     OW 2612   0.130   3.683   3.433
  862SOL    HW1 2613   0.120   3.668   3.532
  862SOL    HW2 2614   0.044   3.719   3.397
  863SOL     OW 2615   0.865   2.210   2.057
  863SOL    HW1 2616   0.924   2.273   2.008
  863SOL    HW2 2617   0.884   2.116   2.028
  864SOL     OW 2618   1.719   2.447   3.693
  864SOL    HW1 2619   1.693   2.536   3.657
  864SOL    HW2 2620   1.717   2.379   3.620
  865SOL     OW 2621   1.362   3.006   2.407
  865SOL    HW1 2622   1.445   2.977   2.359
  865SOL    HW2 2623   1.313   3.073   2.351
  866SOL     OW 2624   0.550   2.058   2.747
  866SOL    HW1 2625   0.545   2.053   2.847
  866SOL    HW2 2626   0.552   2.154   2.718
  867SOL     OW 2627   1.008   3.318   2.339
  867SOL    HW1 2628   0.962   3.390   2.287
  867SOL    HW2 2629   1.004   3.338   2.437
  868SOL     OW 2630   0.351   3.663   2.715
  868SOL    HW1 2631   0.401   3.577   2.721
  868SOL    HW2 2632   0.416   3.740   2.712
  869SOL     OW 2633   1.795   2.928   2.735
  869SOL    HW1 2634   1.733   2.913   2.659
  869SOL    HW2 2635   1.743   2.939   2.820
  870SOL     OW 2636   1.227   3.412   3.368
  870SOL    HW1 2637   1.233   3.335   3.432
  870SOL    HW2 2638   1.175   3.386   3.288
  871SOL     OW 2639   0.321   2.805   2.104
  871SOL    HW1 2640   0.403   2.844   2.062
  871SOL    HW2 2641   0.294   2.723   2.055
  872SOL     OW 2642   1.458   2.597   2.590
  872SOL    HW1 2643   1.453   2.532   2.665
  872SOL    HW2 2644   1.538   2.656   2.603
  873SOL     OW 2645   0.461   3.128   3.589
  873SOL    HW1 2646   0.411   3.129   3.503
  873SOL    HW2 2647   0.398   3.110   3.665
  874SOL     OW 2648   1.111   3.638   2.099
  874SOL    HW1 2649   1.051   3.576   2.149
  874SOL    HW2 2650   1.142   3.594   2.014
  875SOL     OW 2651   0.202   2.147   3.360
  875SOL    HW1 2652   0.122   2.207   3.347
  875SOL    HW2 2653   0.192   2.098   3.446
  876SOL     OW 2654   1.632   3.239   1.943
  876SOL    HW1 2655   1.600   3.333   1.933
  876SOL    HW2 2656   1.556   3.176   1.931
  877SOL     OW 2657   0.464   3.605   2.185
  877SOL    HW1 2658   0.497   3.644   2.271
  877SOL    HW2 2659   0.540   3.598   2.120
  878SOL     OW 2660   1.400   1.969   2.288
  878SOL    HW1 2661   1.376   1.932   2.198
  878SOL    HW2 2662   1.499   1.985   2.292
  879SOL     OW 2663   0.249   3.647   3.103
  879SOL    HW1 2664   0.306   3.582   3.153
  879SOL    HW2 2665   0.233   3.614   3.010
  880SOL     OW 2666   0.940   3.560   2.766
  880SOL    HW1 2667   1.020   3.503   2.787
  880SOL    HW2 2668   0.891   3.520   2.689
  881SOL     OW 2669   0.382   2.562   2.342
  881SOL    HW1 2670   0.427   2.472   2.339
  881SOL    HW2 2671   0.288   2.551   2.375
  882SOL     OW 2672   1.547   2.084   3.591
  882SOL    HW1 2673   1.542   2.121   3.683
  882SOL    HW2 2674   1.475   2.015   3.579
  883SOL     OW 2675   0.614   1.984   1.979
  883SOL    HW1 2676   0.712   1.962   1.986
  883SOL    HW2 2677   0.583   1.967   1.886
  884SOL     OW 2678   0.781   2.126   3.611
  884SOL    HW1 2679   0.848   2.065   3.654
  884SOL    HW2 2680   0.708   2.145   3.676
  885SOL     OW 2681   0.888   3.376   3.057
  885SOL    HW1 2682   0.865   3.351   2.963
  885SOL    HW2 2683   0.949   3.307   3.096
  886SOL     OW 2684   1.351   2.452   3.295
  886SOL    HW1 2685   1.379   2.409   3.380
  886SOL    HW2 2686   1.376   2.548   3.296
  887SOL     OW 2687   0.803   3.264   2.786
  887SOL    HW1 2688   0.893   3.278   2.744
  887SOL    HW2 2689   0.732   3.266   2.715
  888SOL     OW 2690   0.922   2.365   2.761
  888SOL    HW1 2691   0.897   2.356   2.665
  888SOL    HW2 2692   0.970   2.283   2.792
  889SOL     OW 2693   0.539   1.926   2.374
  889SOL    HW1 2694   0.458   1.927   2.432
  889SOL    HW2 2695   0.542   2.009   2.319
  890SOL     OW 2696   1.434   3.050   1.903
  890SOL    HW1 2697   1.466   2.974   1.960
  890SOL    HW2 2698   1.342   3.077   1.933
  891SOL     OW 2699   0.297   1.897   2.033
  891SOL    HW1 2700   0.346   1.981   2.012
  891SOL    HW2 2701   0.359   1.832   2.078
  892SOL     OW 2702   0.935   2.098   2.342
  892SOL    HW1 2703   0.887   2.139   2.264
  892SOL    HW2 2704   1.034   2.096   2.323
  893SOL     OW 2705   1.076   2.545   3.326
  893SOL    HW1 2706   0.996   2.484   3.329
  893SOL    HW2 2707   1.157   2.492   3.302
  894SOL     OW 2708   1.227   3.432   2.655
  894SOL    HW1 2709   1.248   3.506   2.590
  894SOL    HW2 2710   1.295   3.432   2.728
  895SOL     OW 2711   0.459   3.014   2.603
  895SOL    HW1 2712   0.388   2.987   2.668
  895SOL    HW2 2713   0.433   2.986   2.510
  896SOL     OW 2714   1.271   3.659   2.453
  896SOL    HW1 2715   1.315   3.723   2.389
  896SOL    HW2 2716   1.221   3.711   2.523
  897SOL     OW 2717   1.032   2.411   1.878
  897SOL    HW1 2718   0.991   2.493   1.839
  897SOL    HW2 2719   1.096   2.437   1.951
  898SOL     OW 2720   0.078   2.418   3.248
  898SOL    HW1 2721   0.170   2.417   3.207
  898SOL    HW2 2722   0.072   2.492   3.315
  899SOL     OW 2723   0.561   2.084   3.009
  899SOL    HW1 2724   0.599   2.000   3.046
  899SOL    HW2 2725   0.473   2.103   3.053
  900SOL     OW 2726   0.866   2.316   2.504
  900SOL    HW1 2727   0.834   2.388   2.442
  900SOL    HW2 2728   0.890   2.235   2.451
  901SOL     OW 2729   1.017   1.901   2.615
  901SOL    HW1 2730   0.945   1.906   2.546
  901SOL    HW2 2731   0.993   1.832   2.684
  902SOL     OW 2732   1.429   3.035   2.729
  902SOL    HW1 2733   1.374   2.951   2.722
  902SOL    HW2 2734   1.455   3.064   2.637
  903SOL     OW 2735   1.466   2.452   2.854
  903SOL    HW1 2736   1.436   2.357   2.861
  903SOL    HW2 2737   1.539   2.468   2.920
  904SOL     OW 2738   1.857   2.695   2.239
  904SOL    HW1 2739   1.899   2.631   2.303
  904SOL    HW2 2740   1.819   2.644   2.161
  905SOL     OW 2741   0.488   3.247   2.036
  905SOL    HW1 2742   0.401   3.232   2.083
  905SOL    HW2 2743   0.471   3.273   1.941
  906SOL     OW 2744   1.664   3.142   2.519
  906SOL    HW1 2745   1.763   3.150   2.533
  906SOL    HW2 2746   1.619   3.226   2.550
  907SOL     OW 2747   1.390   2.437   1.940
  907SOL    HW1 2748   1.336   2.416   2.021
  907SOL    HW2 2749   1.481   2.396   1.949
  908SOL     OW 2750   0.527   2.118   2.190
  908SOL    HW1 2751   0.554   2.059   2.115
  908SOL    HW2 2752   0.527   2.213   2.159
  909SOL     OW 2753   1.754   3.085   3.450
  909SOL    HW1 2754   1.845   3.046   3.437
  909SOL    HW2 2755   1.762   3.181   3.474
  910SOL     OW 2756   1.064   3.209   3.202
  910SOL    HW1 2757   0.984   3.186   3.257
  910SOL    HW2 2758   1.147   3.183   3.251
  911SOL     OW 2759   1.592   3.491   3.487
  911SOL    HW1 2760   1.619   3.525   3.397
  911SOL    HW2 2761   1.671   3.453   3.533
  912SOL     OW 2762   1.111   3.057   2.962
  912SOL    HW1 2763   1.071   3.101   3.043
  912SOL    HW2 2764   1.070   3.094   2.879
  913SOL     OW 2765   1.638   2.961   2.941
  913SOL    HW1 2766   1.643   3.042   3.000
  913SOL    HW2 2767   1.552   2.963   2.890
  914SOL     OW 2768   0.915   1.951   3.264
  914SOL    HW1 2769   0.940   1.931   3.169
  914SOL    HW2 2770   0.987   2.007   3.306
  915SOL     OW 2771   0.980   2.978   3.581
  915SOL    HW1 2772   0.881   2.984   3.591
  915SOL    HW2 2773   1.003   2.898   3.525
  916SOL     OW 2774   0.705   2.912   2.230
  916SOL    HW1 2775   0.691   2.919   2.329
  916SOL    HW2 2776   0.789   2.861   2.212
  917SOL     OW 2777   0.410   2.675   3.113
  917SOL    HW1 2778   0.496   2.687   3.163
  917SOL    HW2 2779   0.368   2.588   3.140
  918SOL     OW 2780   1.274   2.248   3.124
  918SOL    HW1 2781   1.295   2.322   3.188
  918SOL    HW2 2782   1.185   2.265   3.081
  919SOL     OW 2783   0.064   3.426   3.193
  919SOL    HW1 2784   0.018   3.508   3.159
  919SOL    HW2 2785   0.162   3.445   3.202
  920SOL     OW 2786   0.367   2.962   2.363
  920SOL    HW1 2787   0.360   3.045   2.307
  920SOL    HW2 2788   0.371   2.882   2.303
  921SOL     OW 2789   0.566   2.399   2.727
  921SOL    HW1 2790   0.578   2.465   2.653
  921SOL    HW2 2791   0.612   2.433   2.810
  922SOL     OW 2792   1.252   3.210   2.250
  922SOL    HW1 2793   1.302   3.287   2.290
  922SOL    HW2 2794   1.157   3.212   2.282
  923SOL     OW 2795   1.272   3.307   3.004
  923SOL    HW1 2796   1.319   3.320   3.091
  923SOL    HW2 2797   1.206   3.233   3.013
  924SOL     OW 2798   1.582   2.501   2.334
  924SOL    HW1 2799   1.551   2.562   2.407
  924SOL    HW2 2800   1.632   2.553   2.265
  925SOL     OW 2801   0.354   3.372   3.191
  925SOL    HW1 2802   0.333   3.328   3.104
  925SOL    HW2 2803   0.451   3.398   3.194
  926SOL     OW 2804   0.402   2.613   3.460
  926SOL    HW1 2805   0.470   2.668   3.413
  926SOL    HW2 2806   0.442   2.525   3.487
  927SOL     OW 2807   1.587   2.641   3.532
  927SOL    HW1 2808   1.495   2.679   3.527
  927SOL    HW2 2809   1.647   2.688   3.467
  928SOL     OW 2810   1.013   1.967   3.632
  928SOL    HW1 2811   1.019   2.052   3.580
  928SOL    HW2 2812   1.045   1.891   3.575
  929SOL     OW 2813   0.504   1.912   3.602
  929SOL    HW1 2814   0.462   1.855   3.532
  929SOL    HW2 2815   0.438   1.981   3.634
  930SOL     OW 2816   0.573   2.732   2.891
  930SOL    HW1 2817   0.617   2.821   2.882
  930SOL    HW2 2818   0.510   2.732   2.968
  931SOL     OW 2819   1.360   2.724   2.907
  931SOL    HW1 2820   1.285   2.724   2.841
  931SOL    HW2 2821   1.397   2.632   2.916
  932SOL     OW 2822   1.209   2.387   2.137
  932SOL    HW1 2823   1.222   2.303   2.191
  932SOL    HW2 2824   1.180   2.461   2.197
  933SOL     OW 2825   0.307   2.075   3.093
  933SOL    HW1 2826   0.284   2.112   3.183
  933SOL    HW2 2827   0.277   1.980   3.087
  934SOL     OW 2828   0.037   3.172   3.144
  934SOL    HW1 2829   0.090   3.123   3.212
  934SOL    HW2 2830   0.059   3.270   3.149
  935SOL     OW 2831   0.732   2.496   2.926
  935SOL    HW1 2832   0.791   2.470   2.850
  935SOL    HW2 2833   0.704   2.592   2.915
  936SOL     OW 2834   1.728   2.797   3.716
  936SOL    HW1 2835   1.682   2.790   3.627
  936SOL    HW2 2836   1.666   2.841   3.782
  937SOL     OW 2837   0.307   1.925   2.480
  937SOL    HW1 2838   0.296   2.019   2.513
  937SOL    HW2 2839   0.302   1.862   2.557
  938SOL     OW 2840   1.622   2.229   2.236
  938SOL    HW1 2841   1.624   2.153   2.300
  938SOL    HW2 2842   1.574   2.306   2.276
  939SOL     OW 2843   1.023   2.628   2.828
  939SOL    HW1 2844   1.038   2.649   2.924
  939SOL    HW2 2845   0.993   2.533   2.819
  940SOL     OW 2846   0.980   3.435   3.562
  940SOL    HW1 2847   0.960   3.479   3.474
  940SOL    HW2 2848   1.019   3.344   3.546
  941SOL     OW 2849   1.859   3.380   3.467
  941SOL    HW1 2850   1.873   3.407   3.372
  941SOL    HW2 2851   1.942   3.402   3.520
  942SOL     OW 2852   0.350   2.760   3.666
  942SOL    HW1 2853   0.426   2.804   3.714
  942SOL    HW2 2854   0.385   2.713   3.584
  943SOL     OW 2855   1.540   2.136   1.987
  943SOL    HW1 2856   1.479   2.061   2.010
  943SOL    HW2 2857   1.562   2.188   2.070
  944SOL     OW 2858   1.303   2.700   1.904
  944SOL    HW1 2859   1.337   2.607   1.919
  944SOL    HW2 2860   1.321   2.727   1.809
  945SOL     OW 2861   1.068   3.195   2.711
  945SOL    HW1 2862   1.075   3.111   2.656
  945SOL    HW2 2863   1.130   3.264   2.675
  946SOL     OW 2864   0.319   2.672   2.811
  946SOL    HW1 2865   0.412   2.708   2.816
  946SOL    HW2 2866   0.313   2.587   2.863
  947SOL     OW 2867   0.339   2.371   2.868
  947SOL    HW1 2868   0.287   2.288   2.851
  947SOL    HW2 2869   0.416   2.376   2.804
  948SOL     OW 2870   1.138   2.242   3.540
  948SOL    HW1 2871   1.093   2.305   3.604
  948SOL    HW2 2872   1.231   2.273   3.523
  949SOL     OW 2873   1.160   2.069   3.339
  949SOL    HW1 2874   1.160   2.133   3.416
  949SOL    HW2 2875   1.188   2.117   3.256
  950SOL     OW 2876   0.008   3.188   2.062
  950SOL    HW1 2877  -0.085   3.209   2.031
  950SOL    HW2 2878   0.018   3.089   2.075
  951SOL     OW 2879   0.088   3.663   2.789
  951SOL    HW1 2880   0.046   3.577   2.762
  951SOL    HW2 2881   0.182   3.666   2.755
  952SOL     OW 2882   0.504   3.430   2.772
  952SOL    HW1 2883   0.570   3.504   2.781
  952SOL    HW2 2884   0.548   3.351   2.730
  953SOL     OW 2885   1.002   2.658   3.100
  953SOL    HW1 2886   1.043   2.626   3.186
  953SOL    HW2 2887   0.906   2.631   3.097
  954SOL     OW 2888   0.040   2.406   2.976
  954SOL    HW1 2889   0.125   2.373   2.935
  954SOL    HW2 2890   0.053   2.421   3.074
  955SOL     OW 2891   0.189   2.382   3.584
  955SOL    HW1 2892   0.248   2.342   3.514
  955SOL    HW2 2893   0.131   2.453   3.543
  956SOL     OW 2894   1.369   2.812   3.522
  956SOL    HW1 2895   1.408   2.901   3.542
  956SOL    HW2 2896   1.379   2.792   3.425
  957SOL     OW 2897   0.815   2.434   2.187
  957SOL    HW1 2898   0.822   2.345   2.141
  957SOL    HW2 2899   0.721   2.468   2.179
  958SOL     OW 2900   1.657   2.466   3.068
  958SOL    HW1 2901   1.619   2.397   3.130
  958SOL    HW2 2902   1.739   2.430   3.024
  959SOL     OW 2903   0.252   3.426   3.606
  959SOL    HW1 2904   0.222   3.483   3.682
  959SOL    HW2 2905   0.245   3.329   3.632
  960SOL     OW 2906   0.671   2.326   3.131
  960SOL    HW1 2907   0.637   2.237   3.101
  960SOL    HW2 2908   0.697   2.380   3.051
  961SOL     OW 2909   0.930   3.540   3.327
  961SOL    HW1 2910   0.906   3.522   3.232
  961SOL    HW2 2911   0.960   3.634   3.337
  962SOL     OW 2912   0.473   2.362   2.053
  962SOL    HW1 2913   0.534   2.442   2.057
  962SOL    HW2 2914   0.378   2.393   2.060
  963SOL     OW 2915   0.159   2.999   3.328
  963SOL    HW1 2916   0.181   2.938   3.404
  963SOL    HW2 2917   0.169   2.950   3.242
  964SOL     OW 2918   1.347   2.921   3.096
  964SOL    HW1 2919   1.371   2.858   3.022
  964SOL    HW2 2920   1.257   2.961   3.078
  965SOL     OW 2921   1.302   2.717   2.171
  965SOL    HW1 2922   1.216   2.686   2.213
  965SOL    HW2 2923   1.298   2.703   2.072
  966SOL     OW 2924   1.759   3.609   3.016
  966SOL    HW1 2925   1.820   3.639   2.943
  966SOL    HW2 2926   1.721   3.520   2.994
  967SOL     OW 2927   1.252   3.593   2.990
  967SOL    HW1 2928   1.336   3.598   2.936
  967SOL    HW2 2929   1.229   3.497   3.008
  968SOL     OW 2930   0.083   3.120   2.884
  968SOL    HW1 2931   0.078   3.119   2.984
  968SOL    HW2 2932   0.000   3.079   2.846
  969SOL     OW 2933   0.688   3.524   3.578
  969SOL    HW1 2934   0.632   3.605   3.587
  969SOL    HW2 2935   0.740   3.528   3.492
  970SOL     OW 2936   1.726   1.997   2.385
  970SOL    HW1 2937   1.799   1.980   2.318
  970SOL    HW2 2938   1.695   1.910   2.423
  971SOL     OW 2939   1.388   3.435   2.339
  971SOL    HW1 2940   1.455   3.447   2.265
  971SOL    HW2 2941   1.348   3.524   2.362
  972SOL     OW 2942   0.130   3.656   3.713
  972SOL    HW1 2943   0.089   3.582   3.766
  972SOL    HW2 2944   0.194   3.707   3.771
  973SOL     OW 2945   1.280   2.789   2.534
  973SOL    HW1 2946   1.340   2.708   2.536
  973SOL    HW2 2947   1.320   2.858   2.474
  974SOL     OW 2948   0.830   3.135   3.284
  974SOL    HW1 2949   0.825   3.168   3.379
  974SOL    HW2 2950   0.744   3.154   3.238
  975SOL     OW 2951   0.672   3.478   2.016
  975SOL    HW1 2952   0.681   3.488   1.917
  975SOL    HW2 2953   0.632   3.389   2.037
  976SOL     OW 2954   1.650   3.582   3.256
  976SOL    HW1 2955   1.703   3.592   3.172
  976SOL    HW2 2956   1.623   3.672   3.290
  977SOL     OW 2957   1.841   2.037   2.825
  977SOL    HW1 2958   1.880   1.952   2.789
  977SOL    HW2 2959   1.743   2.039   2.806
  978SOL     OW 2960   0.263   2.188   2.582
  978SOL    HW1 2961   0.184   2.239   2.548
  978SOL    HW2 2962   0.254   2.173   2.680
  979SOL     OW 2963   1.194   3.474   1.893
  979SOL    HW1 2964   1.200   3.381   1.930
  979SOL    HW2 2965   1.135   3.474   1.813
  980SOL     OW 2966   0.822   2.864   3.234
  980SOL    HW1 2967   0.862   2.863   3.142
  980SOL    HW2 2968   0.832   2.956   3.274
  981SOL     OW 2969   0.916   2.772   2.153
  981SOL    HW1 2970   0.979   2.810   2.085
  981SOL    HW2 2971   0.956   2.689   2.192
  982SOL     OW 2972   1.504   3.469   1.906
  982SOL    HW1 2973   1.412   3.506   1.913
  982SOL    HW2 2974   1.542   3.489   1.816
  983SOL     OW 2975   0.372   3.150   3.352
  983SOL    HW1 2976   0.359   3.243   3.318
  983SOL    HW2 2977   0.288   3.098   3.339
  984SOL     OW 2978   1.614   3.154   3.151
  984SOL    HW1 2979   1.674   3.157   3.231
  984SOL    HW2 2980   1.539   3.218   3.164
  985SOL     OW 2981   1.039   2.960   2.558
  985SOL    HW1 2982   0.969   2.913   2.612
  985SOL    HW2 2983   1.098   2.892   2.515
  986SOL     OW 2984   1.014   2.098   2.833
  986SOL    HW1 2985   1.006   2.062   2.740
  986SOL    HW2 2986   1.012   2.022   2.898
  987SOL     OW 2987   0.590   3.349   2.353
  987SOL    HW1 2988   0.632   3.291   2.283
  987SOL    HW2 2989   0.546   3.428   2.309
  988SOL     OW 2990   1.709   2.247   3.243
  988SOL    HW1 2991   1.782   2.316   3.247
  988SOL    HW2 2992   1.737   2.172   3.184
  989SOL     OW 2993   0.255   3.210   2.152
  989SOL    HW1 2994   0.159   3.211   2.125
  989SOL    HW2 2995   0.267   3.263   2.236
  990SOL     OW 2996   0.105   2.875   3.588
  990SOL    HW1 2997   0.028   2.842   3.642
  990SOL    HW2 2998   0.190   2.845   3.630
  991SOL     OW 2999   0.672   2.065   3.351
  991SOL    HW1 3000   0.762   2.049   3.311
  991SOL    HW2 3001   0.680   2.070   3.450
  992SOL     OW 3002   0.075   2.207   1.895
  992SOL    HW1 3003  -0.017   2.179   1.866
  992SOL    HW2 3004   0.106   2.284   1.839
  993SOL     OW 3005   1.440   2.718   3.260
  993SOL    HW1 3006   1.383   2.770   3.197
  993SOL    HW2 3007   1.536   2.730   3.236
  994SOL     OW 3008   0.072   2.028   2.180
  994SOL    HW1 3009   0.055   2.111   2.126
  994SOL    HW2 3010   0.162   1.991   2.158
  995SOL     OW 3011   1.183   3.197   1.981
  995SOL    HW1 3012   1.084   3.186   1.983
  995SOL    HW2 3013   1.217   3.212   2.074
  996SOL     OW 3014   0.613   2.704   3.293
  996SOL    HW1 3015   0.669   2.785   3.276
  996SOL    HW2 3016   0.672   2.624   3.296
  997SOL     OW 3017   1.493   3.629   2.821
  997SOL    HW1 3018   1.526   3.693   2.752
  997SOL    HW2 3019   1.559   3.623   2.896
  998SOL     OW 3020   0.716   2.427   3.570
  998SOL    HW1 3021   0.735   2.492   3.644
  998SOL    HW2 3022   0.776   2.347   3.579
  999SOL     OW 3023   1.450   3.082   3.495
  999SOL    HW1 3024   1.441   3.072   3.594
  999SOL    HW2 3025   1.546   3.075   3.469
 1000SOL     OW 3026   0.390   3.603   3.422
 1000SOL    HW1 3027   0.299   3.644   3.420
 1000SOL    HW2 3028   0.383   3.509   3.454
 1001SOL     OW 3029   1.674   2.745   3.116
 1001SOL    HW1 3030   1.647   2.656   3.079
 1001SOL    HW2 3031   1.675   2.813   3.043
 1002SOL     OW 3032   1.225   2.187   2.311
 1002SOL    HW1 3033   1.290   2.113   2.300
 1002SOL    HW2 3034   1.245   2.237   2.395
 1003SOL     OW 3035   0.594   2.607   2.514
 1003SOL    HW1 3036   0.644   2.692   2.495
 1003SOL    HW2 3037   0.506   2.609   2.466
 1004SOL     OW 3038   1.777   2.204   3.504
 1004SOL    HW1 3039   1.760   2.235   3.410
 1004SOL    HW2 3040   1.693   2.167   3.542
 1005SOL     OW 3041   1.730   2.796   3.379
 1005SOL    HW1 3042   1.768   2.887   3.394
 1005SOL    HW2 3043   1.722   2.779   3.280
 1006SOL     OW 3044   0.859   3.236   1.878
 1006SOL    HW1 3045   0.813   3.251   1.966
 1006SOL    HW2 3046   0.903   3.321   1.848
 1007SOL     OW 3047   0.661   3.652   2.815
 1007SOL    HW1 3048   0.615   3.740   2.802
 1007SOL    HW2 3049   0.760   3.664   2.808
 1008SOL     OW 3050   0.859   2.818   2.723
 1008SOL    HW1 3051   0.913   2.749   2.771
 1008SOL    HW2 3052   0.827   2.887   2.789
 1009SOL     OW 3053   1.083   2.846   1.949
 1009SOL    HW1 3054   1.060   2.899   1.867
 1009SOL    HW2 3055   1.164   2.790   1.930
 1010SOL     OW 3056   1.861   3.431   2.713
 1010SOL    HW1 3057   1.790   3.419   2.643
 1010SOL    HW2 3058   1.862   3.352   2.773
 1011SOL     OW 3059   0.221   3.176   3.706
 1011SOL    HW1 3060   0.156   3.103   3.685
 1011SOL    HW2 3061   0.225   3.190   3.804
 1012SOL     OW 3062   0.079   3.102   2.515
 1012SOL    HW1 3063   0.078   3.055   2.603
 1012SOL    HW2 3064   0.161   3.074   2.464
 1013SOL     OW 3065   0.672   3.253   3.486
 1013SOL    HW1 3066   0.594   3.203   3.524
 1013SOL    HW2 3067   0.669   3.348   3.517
 1014SOL     OW 3068   1.824   2.054   3.089
 1014SOL    HW1 3069   1.820   1.964   3.133
 1014SOL    HW2 3070   1.827   2.043   2.990
 1015SOL     OW 3071   0.428   2.286   2.382
 1015SOL    HW1 3072   0.458   2.214   2.320
 1015SOL    HW2 3073   0.389   2.246   2.465
 1016SOL     OW 3074   1.705   3.349   2.966
 1016SOL    HW1 3075   1.612   3.324   2.939
 1016SOL    HW2 3076   1.731   3.299   3.048
 1017SOL     OW 3077   0.317   2.409   3.142
 1017SOL    HW1 3078   0.355   2.350   3.214
 1017SOL    HW2 3079   0.357   2.383   3.054
 1018SOL     OW 3080   0.812   3.448   2.549
 1018SOL    HW1 3081   0.844   3.458   2.455
 1018SOL    HW2 3082   0.733   3.386   2.551
 1019SOL     OW 3083   1.424   2.076   2.974
 1019SOL    HW1 3084   1.476   2.011   3.029
 1019SOL    HW2 3085   1.375   2.139   3.035
 1020SOL     OW 3086   1.001   1.896   3.016
 1020SOL    HW1 3087   0.938   1.824   2.985
 1020SOL    HW2 3088   1.094   1.860   3.016
 1021SOL     OW 3089   0.770   3.192   2.163
 1021SOL    HW1 3090   0.724   3.105   2.180
 1021SOL    HW2 3091   0.861   3.189   2.204
 1022SOL     OW 3092   0.618   3.429   3.146
 1022SOL    HW1 3093   0.613   3.511   3.203
 1022SOL    HW2 3094   0.707   3.426   3.101
 1023SOL     OW 3095   1.352   1.914   2.030
 1023SOL    HW1 3096   1.387   1.873   1.946
 1023SOL    HW2 3097   1.262   1.876   2.050
 1024SOL     OW 3098   1.300   2.315   2.553
 1024SOL    HW1 3099   1.241   2.395   2.557
 1024SOL    HW2 3100   1.315   2.280   2.646
 1025SOL     OW 3101   1.593   2.083   2.744
 1025SOL    HW1 3102   1.509   2.082   2.798
 1025SOL    HW2 3103   1.595   2.166   2.688
 1026SOL     OW 3104   0.039   2.939   2.162
 1026SOL    HW1 3105   0.138   2.928   2.153
 1026SOL    HW2 3106  -0.001   2.853   2.194
 1027SOL     OW 3107   0.875   3.508   2.199
 1027SOL    HW1 3108   0.798   3.473   2.145
 1027SOL    HW2 3109   0.843   3.579   2.261
 1028SOL     OW 3110   0.230   2.490   3.837
 1028SOL    HW1 3111   0.137   2.488   3.874
 1028SOL    HW2 3112   0.231   2.451   3.745
 1029SOL     OW 3113   0.225   2.137   4.720
 1029SOL    HW1 3114   0.260   2.120   4.812
 1029SOL    HW2 3115   0.137   2.092   4.708
 1030SOL     OW 3116   0.019   2.230   4.371
 1030SOL    HW1 3117  -0.063   2.273   4.410
 1030SOL    HW2 3118  -0.009   2.157   4.308
 1031SOL     OW 3119   0.569   3.137   4.889
 1031SOL    HW1 3120   0.476   3.130   4.852
 1031SOL    HW2 3121   0.580   3.226   4.933
 1032SOL     OW 3122   1.555   3.373   4.427
 1032SOL    HW1 3123   1.498   3.357   4.508
 1032SOL    HW2 3124   1.496   3.383   4.347
 1033SOL     OW 3125   1.135   2.565   4.441
 1033SOL    HW1 3126   1.192   2.643   4.416
 1033SOL    HW2 3127   1.075   2.591   4.517
 1034SOL     OW 3128   1.755   2.469   3.955
 1034SOL    HW1 3129   1.743   2.456   3.856
 1034SOL    HW2 3130   1.725   2.388   4.004
 1035SOL     OW 3131   0.768   3.006   4.747
 1035SOL    HW1 3132   0.690   3.023   4.807
 1035SOL    HW2 3133   0.802   3.093   4.711
 1036SOL     OW 3134   0.685   2.874   4.389
 1036SOL    HW1 3135   0.754   2.858   4.459
 1036SOL    HW2 3136   0.612   2.931   4.427
 1037SOL     OW 3137   0.335   3.297   4.785
 1037SOL    HW1 3138   0.257   3.266   4.732
 1037SOL    HW2 3139   0.393   3.355   4.728
 1038SOL     OW 3140   1.460   3.367   5.063
 1038SOL    HW1 3141   1.484   3.461   5.089
 1038SOL    HW2 3142   1.444   3.313   5.145
 1039SOL     OW 3143   0.438   2.254   5.223
 1039SOL    HW1 3144   0.520   2.198   5.232
 1039SOL    HW2 3145   0.357   2.196   5.227
 1040SOL     OW 3146   1.603   2.309   4.461
 1040SOL    HW1 3147   1.529   2.355   4.411
 1040SOL    HW2 3148   1.654   2.377   4.514
 1041SOL     OW 3149   0.231   3.575   4.207
 1041SOL    HW1 3150   0.265   3.652   4.261
 1041SOL    HW2 3151   0.275   3.575   4.117
 1042SOL     OW 3152   0.230   3.296   4.262
 1042SOL    HW1 3153   0.204   3.392   4.262
 1042SOL    HW2 3154   0.159   3.242   4.307
 1043SOL     OW 3155   0.240   2.953   4.610
 1043SOL    HW1 3156   0.254   2.869   4.662
 1043SOL    HW2 3157   0.185   3.017   4.665
 1044SOL     OW 3158   0.620   3.648   5.163
 1044SOL    HW1 3159   0.528   3.631   5.198
 1044SOL    HW2 3160   0.648   3.740   5.189
 1045SOL     OW 3161   0.606   2.826   3.847
 1045SOL    HW1 3162   0.613   2.910   3.793
 1045SOL    HW2 3163   0.652   2.839   3.935
 1046SOL     OW 3164   1.594   1.976   5.204
 1046SOL    HW1 3165   1.576   2.043   5.132
 1046SOL    HW2 3166   1.591   2.022   5.293
 1047SOL     OW 3167   0.122   2.505   4.287
 1047SOL    HW1 3168   0.077   2.417   4.304
 1047SOL    HW2 3169   0.121   2.559   4.371
 1048SOL     OW 3170   1.842   3.629   4.083
 1048SOL    HW1 3171   1.896   3.600   4.163
 1048SOL    HW2 3172   1.872   3.719   4.054
 1049SOL     OW 3173   0.027   3.458   3.841
 1049SOL    HW1 3174   0.008   3.362   3.862
 1049SOL    HW2 3175  -0.006   3.516   3.916
 1050SOL     OW 3176   1.689   2.784   4.336
 1050SOL    HW1 3177   1.784   2.755   4.344
 1050SOL    HW2 3178   1.681   2.849   4.261
 1051SOL     OW 3179   1.641   2.970   4.156
 1051SOL    HW1 3180   1.727   2.972   4.104
 1051SOL    HW2 3181   1.655   3.017   4.244
 1052SOL     OW 3182   0.613   3.227   4.450
 1052SOL    HW1 3183   0.564   3.140   4.459
 1052SOL    HW2 3184   0.590   3.270   4.363
 1053SOL     OW 3185   0.809   1.866   4.226
 1053SOL    HW1 3186   0.849   1.957   4.217
 1053SOL    HW2 3187   0.709   1.874   4.232
 1054SOL     OW 3188   0.197   2.838   4.988
 1054SOL    HW1 3189   0.286   2.793   4.974
 1054SOL    HW2 3190   0.124   2.773   4.969
 1055SOL     OW 3191   1.525   2.861   3.914
 1055SOL    HW1 3192   1.462   2.785   3.927
 1055SOL    HW2 3193   1.573   2.879   4.000
 1056SOL     OW 3194   0.317   2.113   5.525
 1056SOL    HW1 3195   0.388   2.184   5.531
 1056SOL    HW2 3196   0.229   2.152   5.553
 1057SOL     OW 3197   1.466   3.279   4.677
 1057SOL    HW1 3198   1.407   3.285   4.757
 1057SOL    HW2 3199   1.451   3.191   4.631
 1058SOL     OW 3200   1.667   3.576   4.296
 1058SOL    HW1 3201   1.626   3.553   4.208
 1058SOL    HW2 3202   1.649   3.502   4.361
 1059SOL     OW 3203   0.598   2.591   3.994
 1059SOL    HW1 3204   0.622   2.660   3.926
 1059SOL    HW2 3205   0.520   2.624   4.048
 1060SOL     OW 3206   1.281   2.207   4.668
 1060SOL    HW1 3207   1.195   2.157   4.655
 1060SOL    HW2 3208   1.343   2.153   4.724
 1061SOL     OW 3209   1.576   3.524   4.031
 1061SOL    HW1 3210   1.665   3.570   4.034
 1061SOL    HW2 3211   1.555   3.500   3.936
 1062SOL     OW 3212   0.807   2.467   5.189
 1062SOL    HW1 3213   0.760   2.464   5.278
 1062SOL    HW2 3214   0.756   2.412   5.123
 1063SOL     OW 3215   0.991   2.272   4.966
 1063SOL    HW1 3216   0.914   2.306   5.020
 1063SOL    HW2 3217   0.957   2.221   4.887
 1064SOL     OW 3218   1.041   2.563   4.153
 1064SOL    HW1 3219   1.067   2.559   4.249
 1064SOL    HW2 3220   0.956   2.512   4.139
 1065SOL     OW 3221   0.076   2.673   4.513
 1065SOL    HW1 3222   0.175   2.661   4.522
 1065SOL    HW2 3223   0.052   2.768   4.534
 1066SOL     OW 3224   0.130   3.683   5.295
 1066SOL    HW1 3225   0.120   3.668   5.394
 1066SOL    HW2 3226   0.044   3.719   5.259
 1067SOL     OW 3227   0.865   2.210   3.919
 1067SOL    HW1 3228   0.924   2.273   3.870
 1067SOL    HW2 3229   0.884   2.116   3.890
 1068SOL     OW 3230   1.362   3.006   4.269
 1068SOL    HW1 3231   1.445   2.977   4.221
 1068SOL    HW2 3232   1.313   3.073   4.213
 1069SOL     OW 3233   0.550   2.058   4.609
 1069SOL    HW1 3234   0.545   2.053   4.709
 1069SOL    HW2 3235   0.552   2.154   4.580
 1070SOL     OW 3236   1.008   3.318   4.201
 1070SOL    HW1 3237   0.962   3.390   4.149
 1070SOL    HW2 3238   1.004   3.338   4.299
 1071SOL     OW 3239   0.351   3.663   4.577
 1071SOL    HW1 3240   0.401   3.577   4.583
 1071SOL    HW2 3241   0.416   3.740   4.574
 1072SOL     OW 3242   1.795   2.928   4.597
 1072SOL    HW1 3243   1.733   2.913   4.521
 1072SOL    HW2 3244   1.743   2.939   4.682
 1073SOL     OW 3245   0.321   2.805   3.966
 1073SOL    HW1 3246   0.403   2.844   3.924
 1073SOL    HW2 3247   0.294   2.723   3.917
 1074SOL     OW 3248   1.458   2.597   4.452
 1074SOL    HW1 3249   1.453   2.532   4.527
 1074SOL    HW2 3250   1.538   2.656   4.465
 1075SOL     OW 3251   1.111   3.638   3.961
 1075SOL    HW1 3252   1.051   3.576   4.011
 1075SOL    HW2 3253   1.142   3.594   3.876
 1076SOL     OW 3254   1.632   3.239   3.805
 1076SOL    HW1 3255   1.600   3.333   3.795
 1076SOL    HW2 3256   1.556   3.176   3.793
 1077SOL     OW 3257   0.464   3.605   4.047
 1077SOL    HW1 3258   0.497   3.644   4.133
 1077SOL    HW2 3259   0.540   3.598   3.982
 1078SOL     OW 3260   1.400   1.969   4.150
 1078SOL    HW1 3261   1.376   1.932   4.060
 1078SOL    HW2 3262   1.499   1.985   4.154
 1079SOL     OW 3263   0.249   3.647   4.965
 1079SOL    HW1 3264   0.306   3.582   5.015
 1079SOL    HW2 3265   0.233   3.614   4.872
 1080SOL     OW 3266   0.940   3.560   4.628
 1080SOL    HW1 3267   1.020   3.503   4.649
 1080SOL    HW2 3268   0.891   3.520   4.551
 1081SOL     OW 3269   0.382   2.562   4.204
 1081SOL    HW1 3270   0.427   2.472   4.201
 1081SOL    HW2 3271   0.288   2.551   4.237
 1082SOL     OW 3272   0.614   1.984   3.841
 1082SOL    HW1 3273   0.712   1.962   3.848
 1082SOL    HW2 3274   0.583   1.967   3.748
 1083SOL     OW 3275   0.888   3.376   4.919
 1083SOL    HW1 3276   0.865   3.351   4.825
 1083SOL    HW2 3277   0.949   3.307   4.958
 1084SOL     OW 3278   0.803   3.264   4.648
 1084SOL    HW1 3279   0.893   3.278   4.606
 1084SOL    HW2 3280   0.732   3.266   4.577
 1085SOL     OW 3281   0.922   2.365   4.623
 1085SOL    HW1 3282   0.897   2.356   4.527
 1085SOL    HW2 3283   0.970   2.283   4.654
 1086SOL     OW 3284   0.539   1.926   4.236
 1086SOL    HW1 3285   0.458   1.927   4.294
 1086SOL    HW2 3286   0.542   2.009   4.181
 1087SOL     OW 3287   1.434   3.050   3.765
 1087SOL    HW1 3288   1.466   2.974   3.822
 1087SOL    HW2 3289   1.342   3.077   3.795
 1088SOL     OW 3290   0.297   1.897   3.895
 1088SOL    HW1 3291   0.346   1.981   3.874
 1088SOL    HW2 3292   0.359   1.832   3.940
 1089SOL     OW 3293   0.935   2.098   4.204
 1089SOL    HW1 3294   0.887   2.139   4.126
 1089SOL    HW2 3295   1.034   2.096   4.185
 1090SOL     OW 3296   1.227   3.432   4.517
 1090SOL    HW1 3297   1.248   3.506   4.452
 1090SOL    HW2 3298   1.295   3.432   4.590
 1091SOL     OW 3299   0.459   3.014   4.465
 1091SOL    HW1 3300   0.388   2.987   4.530
 1091SOL    HW2 3301   0.433   2.986   4.372
 1092SOL     OW 3302   1.271   3.659   4.315
 1092SOL    HW1 3303   1.315   3.723   4.251
 1092SOL    HW2 3304   1.221   3.711   4.385
 1093SOL     OW 3305   1.032   2.411   3.740
 1093SOL    HW1 3306   0.991   2.493   3.701
 1093SOL    HW2 3307   1.096   2.437   3.813
 1094SOL     OW 3308   0.078   2.418   5.110
 1094SOL    HW1 3309   0.170   2.417   5.069
 1094SOL    HW2 3310   0.072   2.492   5.177
 1095SOL     OW 3311   0.561   2.084   4.871
 1095SOL    HW1 3312   0.599   2.000   4.908
 1095SOL    HW2 3313   0.473   2.103   4.915
 1096SOL     OW 3314   0.866   2.316   4.366
 1096SOL    HW1 3315   0.834   2.388   4.304
 1096SOL    HW2 3316   0.890   2.235   4.313
 1097SOL     OW 3317   1.017   1.901   4.477
 1097SOL    HW1 3318   0.945   1.906   4.408
 1097SOL    HW2 3319   0.993   1.832   4.546
 1098SOL     OW 3320   1.429   3.035   4.591
 1098SOL    HW1 3321   1.374   2.951   4.584
 1098SOL    HW2 3322   1.455   3.064   4.499
 1099SOL     OW 3323   1.466   2.452   4.716
 1099SOL    HW1 3324   1.436   2.357   4.723
 1099SOL    HW2 3325   1.539   2.468   4.782
 1100SOL     OW 3326   1.857   2.695   4.101
 1100SOL    HW1 3327   1.899   2.631   4.165
 1100SOL    HW2 3328   1.819   2.644   4.023
 1101SOL     OW 3329   0.488   3.247   3.898
 1101SOL    HW1 3330   0.401   3.232   3.945
 1101SOL    HW2 3331   0.471   3.273   3.803
 1102SOL     OW 3332   1.664   3.142   4.381
 1102SOL    HW1 3333   1.763   3.150   4.395
 1102SOL    HW2 3334   1.619   3.226   4.412
 1103SOL     OW 3335   1.390   2.437   3.802
 1103SOL    HW1 3336   1.336   2.416   3.883
 1103SOL    HW2 3337   1.481   2.396   3.811
 1104SOL     OW 3338   0.527   2.118   4.052
 1104SOL    HW1 3339   0.554   2.059   3.977
 1104SOL    HW2 3340   0.527   2.213   4.021
 1105SOL     OW 3341   1.064   3.209   5.064
 1105SOL    HW1 3342   0.984   3.186   5.119
 1105SOL    HW2 3343   1.147   3.183   5.113
 1106SOL     OW 3344   1.111   3.057   4.824
 1106SOL    HW1 3345   1.071   3.101   4.905
 1106SOL    HW2 3346   1.070   3.094   4.741
 1107SOL     OW 3347   1.638   2.961   4.803
 1107SOL    HW1 3348   1.643   3.042   4.862
 1107SOL    HW2 3349   1.552   2.963   4.752
 1108SOL     OW 3350   0.915   1.951   5.126
 1108SOL    HW1 3351   0.940   1.931   5.031
 1108SOL    HW2 3352   0.987   2.007   5.168
 1109SOL     OW 3353   0.705   2.912   4.092
 1109SOL    HW1 3354   0.691   2.919   4.191
 1109SOL    HW2 3355   0.789   2.861   4.074
 1110SOL     OW 3356   0.410   2.675   4.975
 1110SOL    HW1 3357   0.496   2.687   5.025
 1110SOL    HW2 3358   0.368   2.588   5.002
 1111SOL     OW 3359   1.274   2.248   4.986
 1111SOL    HW1 3360   1.295   2.322   5.050
 1111SOL    HW2 3361   1.185   2.265   4.943
 1112SOL     OW 3362   0.064   3.426   5.055
 1112SOL    HW1 3363   0.018   3.508   5.021
 1112SOL    HW2 3364   0.162   3.445   5.064
 1113SOL     OW 3365   0.367   2.962   4.225
 1113SOL    HW1 3366   0.360   3.045   4.169
 1113SOL    HW2 3367   0.371   2.882   4.165
 1114SOL     OW 3368   0.566   2.399   4.589
 1114SOL    HW1 3369   0.578   2.465   4.515
 1114SOL    HW2 3370   0.612   2.433   4.672
 1115SOL     OW 3371   1.252   3.210   4.112
 1115SOL    HW1 3372   1.302   3.287   4.152
 1115SOL    HW2 3373   1.157   3.212   4.144
 1116SOL     OW 3374   1.272   3.307   4.866
 1116SOL    HW1 3375   1.319   3.320   4.953
 1116SOL    HW2 3376   1.206   3.233   4.875
 1117SOL     OW 3377   1.582   2.501   4.196
 1117SOL    HW1 3378   1.551   2.562   4.269
 1117SOL    HW2 3379   1.632   2.553   4.127
 1118SOL     OW 3380   0.354   3.372   5.053
 1118SOL    HW1 3381   0.333   3.328   4.966
 1118SOL    HW2 3382   0.451   3.398   5.056
 1119SOL     OW 3383   0.402   2.613   5.322
 1119SOL    HW1 3384   0.470   2.668   5.275
 1119SOL    HW2 3385   0.442   2.525   5.349
 1120SOL     OW 3386   1.587   2.641   5.394
 1120SOL    HW1 3387   1.495   2.679   5.389
 1120SOL    HW2 3388   1.647   2.688   5.329
 1121SOL     OW 3389   0.573   2.732   4.753
 1121SOL    HW1 3390   0.617   2.821   4.744
 1121SOL    HW2 3391   0.510   2.732   4.830
 1122SOL     OW 3392   1.360   2.724   4.769
 1122SOL    HW1 3393   1.285   2.724   4.703
 1122SOL    HW2 3394   1.397   2.632   4.778
 1123SOL     OW 3395   1.209   2.387   3.999
 1123SOL    HW1 3396   1.222   2.303   4.053
 1123SOL    HW2 3397   1.180   2.461   4.059
 1124SOL     OW 3398   0.307   2.075   4.955
 1124SOL    HW1 3399   0.284   2.112   5.045
 1124SOL    HW2 3400   0.277   1.980   4.949
 1125SOL     OW 3401   0.037   3.172   5.006
 1125SOL    HW1 3402   0.090   3.123   5.074
 1125SOL    HW2 3403   0.059   3.270   5.011
 1126SOL     OW 3404   0.732   2.496   4.788
 1126SOL    HW1 3405   0.791   2.470   4.712
 1126SOL    HW2 3406   0.704   2.592   4.777
 1127SOL     OW 3407   0.307   1.925   4.342
 1127SOL    HW1 3408   0.296   2.019   4.375
 1127SOL    HW2 3409   0.302   1.862   4.419
 1128SOL     OW 3410   1.622   2.229   4.098
 1128SOL    HW1 3411   1.624   2.153   4.162
 1128SOL    HW2 3412   1.574   2.306   4.138
 1129SOL     OW 3413   1.023   2.628   4.690
 1129SOL    HW1 3414   1.038   2.649   4.786
 1129SOL    HW2 3415   0.993   2.533   4.681
 1130SOL     OW 3416   0.980   3.435   5.424
 1130SOL    HW1 3417   0.960   3.479   5.336
 1130SOL    HW2 3418   1.019   3.344   5.408
 1131SOL     OW 3419   1.540   2.136   3.849
 1131SOL    HW1 3420   1.479   2.061   3.872
 1131SOL    HW2 3421   1.562   2.188   3.932
 1132SOL     OW 3422   1.303   2.700   3.766
 1132SOL    HW1 3423   1.337   2.607   3.781
 1132SOL    HW2 3424   1.321   2.727   3.671
 1133SOL     OW 3425   1.068   3.195   4.573
 1133SOL    HW1 3426   1.075   3.111   4.518
 1133SOL    HW2 3427   1.130   3.264   4.537
 1134SOL     OW 3428   0.319   2.672   4.673
 1134SOL    HW1 3429   0.412   2.708   4.678
 1134SOL    HW2 3430   0.313   2.587   4.725
 1135SOL     OW 3431   0.339   2.371   4.730
 1135SOL    HW1 3432   0.287   2.288   4.713
 1135SOL    HW2 3433   0.416   2.376   4.666
 1136SOL     OW 3434   1.138   2.242   5.402
 1136SOL    HW1 3435   1.093   2.305   5.466
 1136SOL    HW2 3436   1.231   2.273   5.385
 1137SOL     OW 3437   1.160   2.069   5.201
 1137SOL    HW1 3438   1.160   2.133   5.278
 1137SOL    HW2 3439   1.188   2.117   5.118
 1138SOL     OW 3440   0.008   3.188   3.924
 1138SOL    HW1 3441  -0.085   3.209   3.893
 1138SOL    HW2 3442   0.018   3.089   3.937
 1139SOL     OW 3443   0.088   3.663   4.651
 1139SOL    HW1 3444   0.046   3.577   4.624
 1139SOL    HW2 3445   0.182   3.666   4.617
 1140SOL     OW 3446   0.504   3.430   4.634
 1140SOL    HW1 3447   0.570   3.504   4.643
 1140SOL    HW2 3448   0.548   3.351   4.592
 1141SOL     OW 3449   1.002   2.658   4.962
 1141SOL    HW1 3450   1.043   2.626   5.048
 1141SOL    HW2 3451   0.906   2.631   4.959
 1142SOL     OW 3452   0.040   2.406   4.838
 1142SOL    HW1 3453   0.125   2.373   4.797
 1142SOL    HW2 3454   0.053   2.421   4.936
 1143SOL     OW 3455   0.815   2.434   4.049
 1143SOL    HW1 3456   0.822   2.345   4.003
 1143SOL    HW2 3457   0.721   2.468   4.041
 1144SOL     OW 3458   1.657   2.466   4.930
 1144SOL    HW1 3459   1.619   2.397   4.992
 1144SOL    HW2 3460   1.739   2.430   4.886
 1145SOL     OW 3461   0.671   2.326   4.993
 1145SOL    HW1 3462   0.637   2.237   4.963
 1145SOL    HW2 3463   0.697   2.380   4.913
 1146SOL     OW 3464   0.930   3.540   5.189
 1146SOL    HW1 3465   0.906   3.522   5.094
 1146SOL    HW2 3466   0.960   3.634   5.199
 1147SOL     OW 3467   0.473   2.362   3.915
 1147SOL    HW1 3468   0.534   2.442   3.919
 1147SOL    HW2 3469   0.378   2.393   3.922
 1148SOL     OW 3470   0.159   2.999   5.190
 1148SOL    HW1 3471   0.181   2.938   5.266
 1148SOL    HW2 3472   0.169   2.950   5.104
 1149SOL     OW 3473   1.347   2.921   4.958
 1149SOL    HW1 3474   1.371   2.858   4.884
 1149SOL    HW2 3475   1.257   2.961   4.940
 1150SOL     OW 3476   1.302   2.717   4.033
 1150SOL    HW1 3477   1.216   2.686   4.075
 1150SOL    HW2 3478   1.298   2.703   3.934
 1151SOL     OW 3479   1.759   3.609   4.878
 1151SOL    HW1 3480   1.820   3.639   4.805
 1151SOL    HW2 3481   1.721   3.520   4.856
 1152SOL     OW 3482   1.252   3.593   4.852
 1152SOL    HW1 3483   1.336   3.598   4.798
 1152SOL    HW2 3484   1.229   3.497   4.870
 1153SOL     OW 3485   0.083   3.120   4.746
 1153SOL    HW1 3486   0.078   3.119   4.846
 1153SOL    HW2 3487   0.000   3.079   4.708
 1154SOL     OW 3488   1.726   1.997   4.247
 1154SOL    HW1 3489   1.799   1.980   4.180
 1154SOL    HW2 3490   1.695   1.910   4.285
 1155SOL     OW 3491   1.388   3.435   4.201
 1155SOL    HW1 3492   1.455   3.447   4.127
 1155SOL    HW2 3493   1.348   3.524   4.224
 1156SOL     OW 3494   1.280   2.789   4.396
 1156SOL    HW1 3495   1.340   2.708   4.398
 1156SOL    HW2 3496   1.320   2.858   4.336
 1157SOL     OW 3497   0.672   3.478   3.878
 1157SOL    HW1 3498   0.681   3.488   3.779
 1157SOL    HW2 3499   0.632   3.389   3.899
 1158SOL     OW 3500   1.650   3.582   5.118
 1158SOL    HW1 3501   1.703   3.592   5.034
 1158SOL    HW2 3502   1.623   3.672   5.152
 1159SOL     OW 3503   1.841   2.037   4.687
 1159SOL    HW1 3504   1.880   1.952   4.651
 1159SOL    HW2 3505   1.743   2.039   4.668
 1160SOL     OW 3506   0.263   2.188   4.444
 1160SOL    HW1 3507   0.184   2.239   4.410
 1160SOL    HW2 3508   0.254   2.173   4.542
 1161SOL     OW 3509   1.194   3.474   3.755
 1161SOL    HW1 3510   1.200   3.381   3.792
 1161SOL    HW2 3511   1.135   3.474   3.675
 1162SOL     OW 3512   0.822   2.864   5.096
 1162SOL    HW1 3513   0.862   2.863   5.004
 1162SOL    HW2 3514   0.832   2.956   5.136
 1163SOL     OW 3515   0.916   2.772   4.015
 1163SOL    HW1 3516   0.979   2.810   3.947
 1163SOL    HW2 3517   0.956   2.689   4.054
 1164SOL     OW 3518   1.504   3.469   3.768
 1164SOL    HW1 3519   1.412   3.506   3.775
 1164SOL    HW2 3520   1.542   3.489   3.678
 1165SOL     OW 3521   0.372   3.150   5.214
 1165SOL    HW1 3522   0.359   3.243   5.180
 1165SOL    HW2 3523   0.288   3.098   5.201
 1166SOL     OW 3524   1.614   3.154   5.013
 1166SOL    HW1 3525   1.674   3.157   5.093
 1166SOL    HW2 3526   1.539   3.218   5.026
 1167SOL     OW 3527   1.039   2.960   4.420
 1167SOL    HW1 3528   0.969   2.913   4.474
 1167SOL    HW2 3529   1.098   2.892   4.377
 1168SOL     OW 3530   1.014   2.098   4.695
 1168SOL    HW1 3531   1.006   2.062   4.602
 1168SOL    HW2 3532   1.012   2.022   4.760
 1169SOL     OW 3533   0.590   3.349   4.215
 1169SOL    HW1 3534   0.632   3.291   4.145
 1169SOL    HW2 3535   0.546   3.428   4.171
 1170SOL     OW 3536   1.709   2.247   5.105
 1170SOL    HW1 3537   1.782   2.316   5.109
 1170SOL    HW2 3538   1.737   2.172   5.046
 1171SOL     OW 3539   0.255   3.210   4.014
 1171SOL    HW1 3540   0.159   3.211   3.987
 1171SOL    HW2 3541   0.267   3.263   4.098
 1172SOL     OW 3542   0.075   2.207   3.757
 1172SOL    HW1 3543  -0.017   2.179   3.728
 1172SOL    HW2 3544   0.106   2.284   3.701
 1173SOL     OW 3545   1.440   2.718   5.122
 1173SOL    HW1 3546   1.383   2.770   5.059
 1173SOL    HW2 3547   1.536   2.730   5.098
 1174SOL     OW 3548   0.072   2.028   4.042
 1174SOL    HW1 3549   0.055   2.111   3.988
 1174SOL    HW2 3550   0.162   1.991   4.020
 1175SOL     OW 3551   1.183   3.197   3.843
 1175SOL    HW1 3552   1.084   3.186   3.845
 1175SOL    HW2 3553   1.217   3.212   3.936
 1176SOL     OW 3554   0.613   2.704   5.155
 1176SOL    HW1 3555   0.669   2.785   5.138
 1176SOL    HW2 3556   0.672   2.624   5.158
 1177SOL     OW 3557   1.493   3.629   4.683
 1177SOL    HW1 3558   1.526   3.693   4.614
 1177SOL    HW2 3559   1.559   3.623   4.758
 1178SOL     OW 3560   0.390   3.603   5.284
 1178SOL    HW1 3561   0.299   3.644   5.282
 1178SOL    HW2 3562   0.383   3.509   5.316
 1179SOL     OW 3563   1.674   2.745   4.978
 1179SOL    HW1 3564   1.647   2.656   4.941
 1179SOL    HW2 3565   1.675   2.813   4.905
 1180SOL     OW 3566   1.225   2.187   4.173
 1180SOL    HW1 3567   1.290   2.113   4.162
 1180SOL    HW2 3568   1.245   2.237   4.257
 1181SOL     OW 3569   0.594   2.607   4.376
 1181SOL    HW1 3570   0.644   2.692   4.357
 1181SOL    HW2 3571   0.506   2.609   4.328
 1182SOL     OW 3572   1.730   2.796   5.241
 1182SOL    HW1 3573   1.768   2.887   5.256
 1182SOL    HW2 3574   1.722   2.779   5.142
 1183SOL     OW 3575   0.859   3.236   3.740
 1183SOL    HW1 3576   0.813   3.251   3.828
 1183SOL    HW2 3577   0.903   3.321   3.710
 1184SOL     OW 3578   0.661   3.652   4.677
 1184SOL    HW1 3579   0.615   3.740   4.664
 1184SOL    HW2 3580   0.760   3.664   4.670
 1185SOL     OW 3581   0.859   2.818   4.585
 1185SOL    HW1 3582   0.913   2.749   4.633
 1185SOL    HW2 3583   0.827   2.887   4.651
 1186SOL     OW 3584   1.083   2.846   3.811
 1186SOL    HW1 3585   1.060   2.899   3.729
 1186SOL    HW2 3586   1.164   2.790   3.792
 1187SOL     OW 3587   1.861   3.431   4.575
 1187SOL    HW1 3588   1.790   3.419   4.505
 1187SOL    HW2 3589   1.862   3.352   4.635
 1188SOL     OW 3590   0.079   3.102   4.377
 1188SOL    HW1 3591   0.078   3.055   4.465
 1188SOL    HW2 3592   0.161   3.074   4.326
 1189SOL     OW 3593   1.824   2.054   4.951
 1189SOL    HW1 3594   1.820   1.964   4.995
 1189SOL    HW2 3595   1.827   2.043   4.852
 1190SOL     OW 3596   0.428   2.286   4.244
 1190SOL    HW1 3597   0.458   2.214   4.182
 1190SOL    HW2 3598   0.389   2.246   4.327
 1191SOL     OW 3599   1.705   3.349   4.828
 1191SOL    HW1 3600   1.612   3.324   4.801
 1191SOL    HW2 3601   1.731   3.299   4.910
 1192SOL     OW 3602   0.317   2.409   5.004
 1192SOL    HW1 3603   0.355   2.350   5.076
 1192SOL    HW2 3604   0.357   2.383   4.916
 1193SOL     OW 3605   0.812   3.448   4.411
 1193SOL    HW1 3606   0.844   3.458   4.317
 1193SOL    HW2 3607   0.733   3.386   4.413
 1194SOL     OW 3608   1.424   2.076   4.836
 1194SOL    HW1 3609   1.476   2.011   4.891
 1194SOL    HW2 3610   1.375   2.139   4.897
 1195SOL     OW 3611   1.001   1.896   4.878
 1195SOL    HW1 3612   0.938   1.824   4.847
 1195SOL    HW2 3613   1.094   1.860   4.878
 1196SOL     OW 3614   0.770   3.192   4.025
 1196SOL    HW1 3615   0.724   3.105   4.042
 1196SOL    HW2 3616   0.861   3.189   4.066
 1197SOL     OW 3617   0.618   3.429   5.008
 1197SOL    HW1 3618   0.613   3.511   5.065
 1197SOL    HW2 3619   0.707   3.426   4.963
 1198SOL     OW 3620   1.352   1.914   3.892
 1198SOL    HW1 3621   1.387   1.873   3.808
 1198SOL    HW2 3622   1.262   1.876   3.912
 1199SOL     OW 3623   1.300   2.315   4.415
 1199SOL    HW1 3624   1.241   2.395   4.419
 1199SOL    HW2 3625   1.315   2.280   4.508
 1200SOL     OW 3626   1.593   2.083   4.606
 1200SOL    HW1 3627   1.509   2.082   4.660
 1200SOL    HW2 3628   1.595   2.166   4.550
 1201SOL     OW 3629   0.039   2.939   4.024
 1201SOL    HW1 3630   0.138   2.928   4.015
 1201SOL    HW2 3631  -0.001   2.853   4.056
 1202SOL     OW 3632   0.875   3.508   4.061
 1202SOL    HW1 3633   0.798   3.473   4.007
 1202SOL    HW2 3634   0.843   3.579   4.123
 1203SOL     OW 3635   0.230   4.352   0.113
 1203SOL    HW1 3636   0.137   4.350   0.150
 1203SOL    HW2 3637   0.231   4.313   0.021
 1204SOL     OW 3638   0.225   3.999   0.996
 1204SOL    HW1 3639   0.260   3.982   1.088
 1204SOL    HW2 3640   0.137   3.954   0.984
 1205SOL     OW 3641   0.019   4.092   0.647
 1205SOL    HW1 3642  -0.063   4.135   0.686
 1205SOL    HW2 3643  -0.009   4.019   0.584
 1206SOL     OW 3644   0.569   4.999   1.165
 1206SOL    HW1 3645   0.476   4.992   1.128
 1206SOL    HW2 3646   0.580   5.088   1.209
 1207SOL     OW 3647   1.555   5.235   0.703
 1207SOL    HW1 3648   1.498   5.219   0.784
 1207SOL    HW2 3649   1.496   5.245   0.623
 1208SOL     OW 3650   1.135   4.427   0.717
 1208SOL    HW1 3651   1.192   4.505   0.692
 1208SOL    HW2 3652   1.075   4.453   0.793
 1209SOL     OW 3653   1.755   4.331   0.231
 1209SOL    HW1 3654   1.743   4.318   0.132
 1209SOL    HW2 3655   1.725   4.250   0.280
 1210SOL     OW 3656   0.768   4.868   1.023
 1210SOL    HW1 3657   0.690   4.885   1.083
 1210SOL    HW2 3658   0.802   4.955   0.987
 1211SOL     OW 3659   0.850   4.522   1.823
 1211SOL    HW1 3660   0.846   4.598   1.888
 1211SOL    HW2 3661   0.872   4.558   1.732
 1212SOL     OW 3662   0.685   4.736   0.665
 1212SOL    HW1 3663   0.754   4.720   0.735
 1212SOL    HW2 3664   0.612   4.793   0.703
 1213SOL     OW 3665   0.686   4.885   1.803
 1213SOL    HW1 3666   0.746   4.964   1.817
 1213SOL    HW2 3667   0.600   4.916   1.762
 1214SOL     OW 3668   0.335   5.159   1.061
 1214SOL    HW1 3669   0.257   5.128   1.008
 1214SOL    HW2 3670   0.393   5.217   1.004
 1215SOL     OW 3671   1.460   5.229   1.339
 1215SOL    HW1 3672   1.484   5.323   1.365
 1215SOL    HW2 3673   1.444   5.175   1.421
 1216SOL     OW 3674   0.438   4.116   1.499
 1216SOL    HW1 3675   0.520   4.060   1.508
 1216SOL    HW2 3676   0.357   4.058   1.503
 1217SOL     OW 3677   1.603   4.171   0.737
 1217SOL    HW1 3678   1.529   4.217   0.687
 1217SOL    HW2 3679   1.654   4.239   0.790
 1218SOL     OW 3680   0.231   5.437   0.483
 1218SOL    HW1 3681   0.265   5.514   0.537
 1218SOL    HW2 3682   0.275   5.437   0.393
 1219SOL     OW 3683   1.127   5.065   1.690
 1219SOL    HW1 3684   1.174   5.065   1.778
 1219SOL    HW2 3685   1.079   4.978   1.679
 1220SOL     OW 3686   0.230   5.158   0.538
 1220SOL    HW1 3687   0.204   5.254   0.538
 1220SOL    HW2 3688   0.159   5.104   0.583
 1221SOL     OW 3689   0.240   4.815   0.886
 1221SOL    HW1 3690   0.254   4.731   0.938
 1221SOL    HW2 3691   0.185   4.879   0.941
 1222SOL     OW 3692   0.606   4.688   0.123
 1222SOL    HW1 3693   0.613   4.772   0.069
 1222SOL    HW2 3694   0.652   4.701   0.211
 1223SOL     OW 3695   1.594   3.838   1.480
 1223SOL    HW1 3696   1.576   3.905   1.408
 1223SOL    HW2 3697   1.591   3.884   1.569
 1224SOL     OW 3698   0.122   4.367   0.563
 1224SOL    HW1 3699   0.077   4.279   0.580
 1224SOL    HW2 3700   0.121   4.421   0.647
 1225SOL     OW 3701   0.027   5.320   0.117
 1225SOL    HW1 3702   0.008   5.224   0.138
 1225SOL    HW2 3703  -0.006   5.378   0.192
 1226SOL     OW 3704   1.689   4.646   0.612
 1226SOL    HW1 3705   1.784   4.617   0.620
 1226SOL    HW2 3706   1.681   4.711   0.537
 1227SOL     OW 3707   1.641   4.832   0.432
 1227SOL    HW1 3708   1.727   4.834   0.380
 1227SOL    HW2 3709   1.655   4.879   0.520
 1228SOL     OW 3710   0.113   4.461   1.597
 1228SOL    HW1 3711   0.201   4.448   1.642
 1228SOL    HW2 3712   0.100   4.558   1.575
 1229SOL     OW 3713   0.613   5.089   0.726
 1229SOL    HW1 3714   0.564   5.002   0.735
 1229SOL    HW2 3715   0.590   5.132   0.639
 1230SOL     OW 3716   1.293   4.952   1.423
 1230SOL    HW1 3717   1.330   4.879   1.365
 1230SOL    HW2 3718   1.345   4.957   1.508
 1231SOL     OW 3719   0.809   3.728   0.502
 1231SOL    HW1 3720   0.849   3.819   0.493
 1231SOL    HW2 3721   0.709   3.736   0.508
 1232SOL     OW 3722   0.197   4.700   1.264
 1232SOL    HW1 3723   0.286   4.655   1.250
 1232SOL    HW2 3724   0.124   4.635   1.245
 1233SOL     OW 3725   1.525   4.723   0.190
 1233SOL    HW1 3726   1.462   4.647   0.203
 1233SOL    HW2 3727   1.573   4.741   0.276
 1234SOL     OW 3728   0.317   3.975   1.801
 1234SOL    HW1 3729   0.388   4.046   1.807
 1234SOL    HW2 3730   0.229   4.014   1.829
 1235SOL     OW 3731   1.466   5.141   0.953
 1235SOL    HW1 3732   1.407   5.147   1.033
 1235SOL    HW2 3733   1.451   5.053   0.907
 1236SOL     OW 3734   0.598   4.453   0.270
 1236SOL    HW1 3735   0.622   4.522   0.202
 1236SOL    HW2 3736   0.520   4.486   0.324
 1237SOL     OW 3737   1.281   4.069   0.944
 1237SOL    HW1 3738   1.195   4.019   0.931
 1237SOL    HW2 3739   1.343   4.015   1.000
 1238SOL     OW 3740   0.807   4.329   1.465
 1238SOL    HW1 3741   0.760   4.326   1.554
 1238SOL    HW2 3742   0.756   4.274   1.399
 1239SOL     OW 3743   1.394   4.193   1.674
 1239SOL    HW1 3744   1.374   4.236   1.762
 1239SOL    HW2 3745   1.472   4.131   1.683
 1240SOL     OW 3746   0.973   4.614   1.572
 1240SOL    HW1 3747   1.019   4.530   1.543
 1240SOL    HW2 3748   0.917   4.648   1.497
 1241SOL     OW 3749   0.991   4.134   1.242
 1241SOL    HW1 3750   0.914   4.168   1.296
 1241SOL    HW2 3751   0.957   4.083   1.163
 1242SOL     OW 3752   1.041   4.425   0.429
 1242SOL    HW1 3753   1.067   4.421   0.525
 1242SOL    HW2 3754   0.956   4.374   0.415
 1243SOL     OW 3755   0.076   4.535   0.789
 1243SOL    HW1 3756   0.175   4.523   0.798
 1243SOL    HW2 3757   0.052   4.630   0.810
 1244SOL     OW 3758   0.865   4.072   0.195
 1244SOL    HW1 3759   0.924   4.135   0.146
 1244SOL    HW2 3760   0.884   3.978   0.166
 1245SOL     OW 3761   1.719   4.309   1.831
 1245SOL    HW1 3762   1.693   4.398   1.795
 1245SOL    HW2 3763   1.717   4.241   1.758
 1246SOL     OW 3764   1.362   4.868   0.545
 1246SOL    HW1 3765   1.445   4.839   0.497
 1246SOL    HW2 3766   1.313   4.935   0.489
 1247SOL     OW 3767   0.550   3.920   0.885
 1247SOL    HW1 3768   0.545   3.915   0.985
 1247SOL    HW2 3769   0.552   4.016   0.856
 1248SOL     OW 3770   1.008   5.180   0.477
 1248SOL    HW1 3771   0.962   5.252   0.425
 1248SOL    HW2 3772   1.004   5.200   0.575
 1249SOL     OW 3773   1.795   4.790   0.873
 1249SOL    HW1 3774   1.733   4.775   0.797
 1249SOL    HW2 3775   1.743   4.801   0.958
 1250SOL     OW 3776   1.227   5.274   1.506
 1250SOL    HW1 3777   1.233   5.197   1.570
 1250SOL    HW2 3778   1.175   5.248   1.426
 1251SOL     OW 3779   0.321   4.667   0.242
 1251SOL    HW1 3780   0.403   4.706   0.200
 1251SOL    HW2 3781   0.294   4.585   0.193
 1252SOL     OW 3782   1.458   4.459   0.728
 1252SOL    HW1 3783   1.453   4.394   0.803
 1252SOL    HW2 3784   1.538   4.518   0.741
 1253SOL     OW 3785   0.461   4.990   1.727
 1253SOL    HW1 3786   0.411   4.991   1.641
 1253SOL    HW2 3787   0.398   4.972   1.803
 1254SOL     OW 3788   1.111   5.500   0.237
 1254SOL    HW1 3789   1.051   5.438   0.287
 1254SOL    HW2 3790   1.142   5.456   0.152
 1255SOL     OW 3791   0.202   4.009   1.498
 1255SOL    HW1 3792   0.122   4.069   1.485
 1255SOL    HW2 3793   0.192   3.960   1.584
 1256SOL     OW 3794   1.632   5.101   0.081
 1256SOL    HW1 3795   1.600   5.195   0.071
 1256SOL    HW2 3796   1.556   5.038   0.069
 1257SOL     OW 3797   1.400   3.831   0.426
 1257SOL    HW1 3798   1.376   3.794   0.336
 1257SOL    HW2 3799   1.499   3.847   0.430
 1258SOL     OW 3800   0.382   4.424   0.480
 1258SOL    HW1 3801   0.427   4.334   0.477
 1258SOL    HW2 3802   0.288   4.413   0.513
 1259SOL     OW 3803   1.547   3.946   1.729
 1259SOL    HW1 3804   1.542   3.983   1.821
 1259SOL    HW2 3805   1.475   3.877   1.717
 1260SOL     OW 3806   0.614   3.846   0.117
 1260SOL    HW1 3807   0.712   3.824   0.124
 1260SOL    HW2 3808   0.583   3.829   0.024
 1261SOL     OW 3809   0.781   3.988   1.749
 1261SOL    HW1 3810   0.848   3.927   1.792
 1261SOL    HW2 3811   0.708   4.007   1.814
 1262SOL     OW 3812   1.351   4.314   1.433
 1262SOL    HW1 3813   1.379   4.271   1.518
 1262SOL    HW2 3814   1.376   4.410   1.434
 1263SOL     OW 3815   0.803   5.126   0.924
 1263SOL    HW1 3816   0.893   5.140   0.882
 1263SOL    HW2 3817   0.732   5.128   0.853
 1264SOL     OW 3818   0.922   4.227   0.899
 1264SOL    HW1 3819   0.897   4.218   0.803
 1264SOL    HW2 3820   0.970   4.145   0.930
 1265SOL     OW 3821   0.539   3.788   0.512
 1265SOL    HW1 3822   0.458   3.789   0.570
 1265SOL    HW2 3823   0.542   3.871   0.457
 1266SOL     OW 3824   1.434   4.912   0.041
 1266SOL    HW1 3825   1.466   4.836   0.098
 1266SOL    HW2 3826   1.342   4.939   0.071
 1267SOL     OW 3827   0.297   3.759   0.171
 1267SOL    HW1 3828   0.346   3.843   0.150
 1267SOL    HW2 3829   0.359   3.694   0.216
 1268SOL     OW 3830   0.935   3.960   0.480
 1268SOL    HW1 3831   0.887   4.001   0.402
 1268SOL    HW2 3832   1.034   3.958   0.461
 1269SOL     OW 3833   1.076   4.407   1.464
 1269SOL    HW1 3834   0.996   4.346   1.467
 1269SOL    HW2 3835   1.157   4.354   1.440
 1270SOL     OW 3836   1.227   5.294   0.793
 1270SOL    HW1 3837   1.248   5.368   0.728
 1270SOL    HW2 3838   1.295   5.294   0.866
 1271SOL     OW 3839   0.459   4.876   0.741
 1271SOL    HW1 3840   0.388   4.849   0.806
 1271SOL    HW2 3841   0.433   4.848   0.648
 1272SOL     OW 3842   1.032   4.273   0.016
 1272SOL    HW1 3843   0.991   4.355  -0.023
 1272SOL    HW2 3844   1.096   4.299   0.089
 1273SOL     OW 3845   0.078   4.280   1.386
 1273SOL    HW1 3846   0.170   4.279   1.345
 1273SOL    HW2 3847   0.072   4.354   1.453
 1274SOL     OW 3848   0.561   3.946   1.147
 1274SOL    HW1 3849   0.599   3.862   1.184
 1274SOL    HW2 3850   0.473   3.965   1.191
 1275SOL     OW 3851   0.866   4.178   0.642
 1275SOL    HW1 3852   0.834   4.250   0.580
 1275SOL    HW2 3853   0.890   4.097   0.589
 1276SOL     OW 3854   1.017   3.763   0.753
 1276SOL    HW1 3855   0.945   3.768   0.684
 1276SOL    HW2 3856   0.993   3.694   0.822
 1277SOL     OW 3857   1.429   4.897   0.867
 1277SOL    HW1 3858   1.374   4.813   0.860
 1277SOL    HW2 3859   1.455   4.926   0.775
 1278SOL     OW 3860   1.466   4.314   0.992
 1278SOL    HW1 3861   1.436   4.219   0.999
 1278SOL    HW2 3862   1.539   4.330   1.058
 1279SOL     OW 3863   1.857   4.557   0.377
 1279SOL    HW1 3864   1.899   4.493   0.441
 1279SOL    HW2 3865   1.819   4.506   0.299
 1280SOL     OW 3866   0.488   5.109   0.174
 1280SOL    HW1 3867   0.401   5.094   0.221
 1280SOL    HW2 3868   0.471   5.135   0.079
 1281SOL     OW 3869   1.664   5.004   0.657
 1281SOL    HW1 3870   1.763   5.012   0.671
 1281SOL    HW2 3871   1.619   5.088   0.688
 1282SOL     OW 3872   1.390   4.299   0.078
 1282SOL    HW1 3873   1.336   4.278   0.159
 1282SOL    HW2 3874   1.481   4.258   0.087
 1283SOL     OW 3875   0.527   3.980   0.328
 1283SOL    HW1 3876   0.554   3.921   0.253
 1283SOL    HW2 3877   0.527   4.075   0.297
 1284SOL     OW 3878   1.754   4.947   1.588
 1284SOL    HW1 3879   1.845   4.908   1.575
 1284SOL    HW2 3880   1.762   5.043   1.612
 1285SOL     OW 3881   1.064   5.071   1.340
 1285SOL    HW1 3882   0.984   5.048   1.395
 1285SOL    HW2 3883   1.147   5.045   1.389
 1286SOL     OW 3884   1.111   4.919   1.100
 1286SOL    HW1 3885   1.071   4.963   1.181
 1286SOL    HW2 3886   1.070   4.956   1.017
 1287SOL     OW 3887   1.638   4.823   1.079
 1287SOL    HW1 3888   1.643   4.904   1.138
 1287SOL    HW2 3889   1.552   4.825   1.028
 1288SOL     OW 3890   0.915   3.813   1.402
 1288SOL    HW1 3891   0.940   3.793   1.307
 1288SOL    HW2 3892   0.987   3.869   1.444
 1289SOL     OW 3893   0.980   4.840   1.719
 1289SOL    HW1 3894   0.881   4.846   1.729
 1289SOL    HW2 3895   1.003   4.760   1.663
 1290SOL     OW 3896   0.705   4.774   0.368
 1290SOL    HW1 3897   0.691   4.781   0.467
 1290SOL    HW2 3898   0.789   4.723   0.350
 1291SOL     OW 3899   0.410   4.537   1.251
 1291SOL    HW1 3900   0.496   4.549   1.301
 1291SOL    HW2 3901   0.368   4.450   1.278
 1292SOL     OW 3902   1.274   4.110   1.262
 1292SOL    HW1 3903   1.295   4.184   1.326
 1292SOL    HW2 3904   1.185   4.127   1.219
 1293SOL     OW 3905   0.064   5.288   1.331
 1293SOL    HW1 3906   0.018   5.370   1.297
 1293SOL    HW2 3907   0.162   5.307   1.340
 1294SOL     OW 3908   0.367   4.824   0.501
 1294SOL    HW1 3909   0.360   4.907   0.445
 1294SOL    HW2 3910   0.371   4.744   0.441
 1295SOL     OW 3911   0.566   4.261   0.865
 1295SOL    HW1 3912   0.578   4.327   0.791
 1295SOL    HW2 3913   0.612   4.295   0.948
 1296SOL     OW 3914   1.252   5.072   0.388
 1296SOL    HW1 3915   1.302   5.149   0.428
 1296SOL    HW2 3916   1.157   5.074   0.420
 1297SOL     OW 3917   1.272   5.169   1.142
 1297SOL    HW1 3918   1.319   5.182   1.229
 1297SOL    HW2 3919   1.206   5.095   1.151
 1298SOL     OW 3920   1.582   4.363   0.472
 1298SOL    HW1 3921   1.551   4.424   0.545
 1298SOL    HW2 3922   1.632   4.415   0.403
 1299SOL     OW 3923   0.354   5.234   1.329
 1299SOL    HW1 3924   0.333   5.190   1.242
 1299SOL    HW2 3925   0.451   5.260   1.332
 1300SOL     OW 3926   0.402   4.475   1.598
 1300SOL    HW1 3927   0.470   4.530   1.551
 1300SOL    HW2 3928   0.442   4.387   1.625
 1301SOL     OW 3929   1.587   4.503   1.670
 1301SOL    HW1 3930   1.495   4.541   1.665
 1301SOL    HW2 3931   1.647   4.550   1.605
 1302SOL     OW 3932   1.013   3.829   1.770
 1302SOL    HW1 3933   1.019   3.914   1.718
 1302SOL    HW2 3934   1.045   3.753   1.713
 1303SOL     OW 3935   0.504   3.774   1.740
 1303SOL    HW1 3936   0.462   3.717   1.670
 1303SOL    HW2 3937   0.438   3.843   1.772
 1304SOL     OW 3938   0.573   4.594   1.029
 1304SOL    HW1 3939   0.617   4.683   1.020
 1304SOL    HW2 3940   0.510   4.594   1.106
 1305SOL     OW 3941   1.360   4.586   1.045
 1305SOL    HW1 3942   1.285   4.586   0.979
 1305SOL    HW2 3943   1.397   4.494   1.054
 1306SOL     OW 3944   1.209   4.249   0.275
 1306SOL    HW1 3945   1.222   4.165   0.329
 1306SOL    HW2 3946   1.180   4.323   0.335
 1307SOL     OW 3947   0.307   3.937   1.231
 1307SOL    HW1 3948   0.284   3.974   1.321
 1307SOL    HW2 3949   0.277   3.842   1.225
 1308SOL     OW 3950   0.037   5.034   1.282
 1308SOL    HW1 3951   0.090   4.985   1.350
 1308SOL    HW2 3952   0.059   5.132   1.287
 1309SOL     OW 3953   0.732   4.358   1.064
 1309SOL    HW1 3954   0.791   4.332   0.988
 1309SOL    HW2 3955   0.704   4.454   1.053
 1310SOL     OW 3956   1.728   4.659   1.854
 1310SOL    HW1 3957   1.682   4.652   1.765
 1310SOL    HW2 3958   1.666   4.703   1.920
 1311SOL     OW 3959   0.307   3.787   0.618
 1311SOL    HW1 3960   0.296   3.881   0.651
 1311SOL    HW2 3961   0.302   3.724   0.695
 1312SOL     OW 3962   1.622   4.091   0.374
 1312SOL    HW1 3963   1.624   4.015   0.438
 1312SOL    HW2 3964   1.574   4.168   0.414
 1313SOL     OW 3965   1.023   4.490   0.966
 1313SOL    HW1 3966   1.038   4.511   1.062
 1313SOL    HW2 3967   0.993   4.395   0.957
 1314SOL     OW 3968   1.859   5.242   1.605
 1314SOL    HW1 3969   1.873   5.269   1.510
 1314SOL    HW2 3970   1.942   5.264   1.658
 1315SOL     OW 3971   0.350   4.622   1.804
 1315SOL    HW1 3972   0.426   4.666   1.852
 1315SOL    HW2 3973   0.385   4.575   1.722
 1316SOL     OW 3974   1.540   3.998   0.125
 1316SOL    HW1 3975   1.479   3.923   0.148
 1316SOL    HW2 3976   1.562   4.050   0.208
 1317SOL     OW 3977   1.303   4.562   0.042
 1317SOL    HW1 3978   1.337   4.469   0.057
 1317SOL    HW2 3979   1.321   4.589  -0.053
 1318SOL     OW 3980   1.068   5.057   0.849
 1318SOL    HW1 3981   1.075   4.973   0.794
 1318SOL    HW2 3982   1.130   5.126   0.813
 1319SOL     OW 3983   0.319   4.534   0.949
 1319SOL    HW1 3984   0.412   4.570   0.954
 1319SOL    HW2 3985   0.313   4.449   1.001
 1320SOL     OW 3986   0.339   4.233   1.006
 1320SOL    HW1 3987   0.287   4.150   0.989
 1320SOL    HW2 3988   0.416   4.238   0.942
 1321SOL     OW 3989   1.138   4.104   1.678
 1321SOL    HW1 3990   1.093   4.167   1.742
 1321SOL    HW2 3991   1.231   4.135   1.661
 1322SOL     OW 3992   1.160   3.931   1.477
 1322SOL    HW1 3993   1.160   3.995   1.554
 1322SOL    HW2 3994   1.188   3.979   1.394
 1323SOL     OW 3995   0.008   5.050   0.200
 1323SOL    HW1 3996  -0.085   5.071   0.169
 1323SOL    HW2 3997   0.018   4.951   0.213
 1324SOL     OW 3998   1.002   4.520   1.238
 1324SOL    HW1 3999   1.043   4.488   1.324
 1324SOL    HW2 4000   0.906   4.493   1.235
 1325SOL     OW 4001   0.040   4.268   1.114
 1325SOL    HW1 4002   0.125   4.235   1.073
 1325SOL    HW2 4003   0.053   4.283   1.212
 1326SOL     OW 4004   0.189   4.244   1.722
 1326SOL    HW1 4005   0.248   4.204   1.652
 1326SOL    HW2 4006   0.131   4.315   1.681
 1327SOL     OW 4007   1.369   4.674   1.660
 1327SOL    HW1 4008   1.408   4.763   1.680
 1327SOL    HW2 4009   1.379   4.654   1.563
 1328SOL     OW 4010   0.815   4.296   0.325
 1328SOL    HW1 4011   0.822   4.207   0.279
 1328SOL    HW2 4012   0.721   4.330   0.317
 1329SOL     OW 4013   1.657   4.328   1.206
 1329SOL    HW1 4014   1.619   4.259   1.268
 1329SOL    HW2 4015   1.739   4.292   1.162
 1330SOL     OW 4016   0.252   5.288   1.744
 1330SOL    HW1 4017   0.222   5.345   1.820
 1330SOL    HW2 4018   0.245   5.191   1.770
 1331SOL     OW 4019   0.671   4.188   1.269
 1331SOL    HW1 4020   0.637   4.099   1.239
 1331SOL    HW2 4021   0.697   4.242   1.189
 1332SOL     OW 4022   0.473   4.224   0.191
 1332SOL    HW1 4023   0.534   4.304   0.195
 1332SOL    HW2 4024   0.378   4.255   0.198
 1333SOL     OW 4025   0.159   4.861   1.466
 1333SOL    HW1 4026   0.181   4.800   1.542
 1333SOL    HW2 4027   0.169   4.812   1.380
 1334SOL     OW 4028   1.347   4.783   1.234
 1334SOL    HW1 4029   1.371   4.720   1.160
 1334SOL    HW2 4030   1.257   4.823   1.216
 1335SOL     OW 4031   1.302   4.579   0.309
 1335SOL    HW1 4032   1.216   4.548   0.351
 1335SOL    HW2 4033   1.298   4.565   0.210
 1336SOL     OW 4034   0.083   4.982   1.022
 1336SOL    HW1 4035   0.078   4.981   1.122
 1336SOL    HW2 4036   0.000   4.941   0.984
 1337SOL     OW 4037   0.903   3.810   0.133
 1337SOL    HW1 4038   0.954   3.811   0.047
 1337SOL    HW2 4039   0.959   3.768   0.204
 1338SOL     OW 4040   1.726   3.859   0.523
 1338SOL    HW1 4041   1.799   3.842   0.456
 1338SOL    HW2 4042   1.695   3.772   0.561
 1339SOL     OW 4043   1.280   4.651   0.672
 1339SOL    HW1 4044   1.340   4.570   0.674
 1339SOL    HW2 4045   1.320   4.720   0.612
 1340SOL     OW 4046   0.830   4.997   1.422
 1340SOL    HW1 4047   0.825   5.030   1.517
 1340SOL    HW2 4048   0.744   5.016   1.376
 1341SOL     OW 4049   1.841   3.899   0.963
 1341SOL    HW1 4050   1.880   3.814   0.927
 1341SOL    HW2 4051   1.743   3.901   0.944
 1342SOL     OW 4052   0.263   4.050   0.720
 1342SOL    HW1 4053   0.184   4.101   0.686
 1342SOL    HW2 4054   0.254   4.035   0.818
 1343SOL     OW 4055   1.194   5.336   0.031
 1343SOL    HW1 4056   1.200   5.243   0.068
 1343SOL    HW2 4057   1.135   5.336  -0.049
 1344SOL     OW 4058   0.822   4.726   1.372
 1344SOL    HW1 4059   0.862   4.725   1.280
 1344SOL    HW2 4060   0.832   4.818   1.412
 1345SOL     OW 4061   0.916   4.634   0.291
 1345SOL    HW1 4062   0.979   4.672   0.223
 1345SOL    HW2 4063   0.956   4.551   0.330
 1346SOL     OW 4064   0.372   5.012   1.490
 1346SOL    HW1 4065   0.359   5.105   1.456
 1346SOL    HW2 4066   0.288   4.960   1.477
 1347SOL     OW 4067   1.614   5.016   1.289
 1347SOL    HW1 4068   1.674   5.019   1.369
 1347SOL    HW2 4069   1.539   5.080   1.302
 1348SOL     OW 4070   1.039   4.822   0.696
 1348SOL    HW1 4071   0.969   4.775   0.750
 1348SOL    HW2 4072   1.098   4.754   0.653
 1349SOL     OW 4073   1.014   3.960   0.971
 1349SOL    HW1 4074   1.006   3.924   0.878
 1349SOL    HW2 4075   1.012   3.884   1.036
 1350SOL     OW 4076   1.709   4.109   1.381
 1350SOL    HW1 4077   1.782   4.178   1.385
 1350SOL    HW2 4078   1.737   4.034   1.322
 1351SOL     OW 4079   0.255   5.072   0.290
 1351SOL    HW1 4080   0.159   5.073   0.263
 1351SOL    HW2 4081   0.267   5.125   0.374
 1352SOL     OW 4082   0.105   4.737   1.726
 1352SOL    HW1 4083   0.028   4.704   1.780
 1352SOL    HW2 4084   0.190   4.707   1.768
 1353SOL     OW 4085   0.672   3.927   1.489
 1353SOL    HW1 4086   0.762   3.911   1.449
 1353SOL    HW2 4087   0.680   3.932   1.588
 1354SOL     OW 4088   0.075   4.069   0.033
 1354SOL    HW1 4089  -0.017   4.041   0.004
 1354SOL    HW2 4090   0.106   4.146  -0.023
 1355SOL     OW 4091   1.440   4.580   1.398
 1355SOL    HW1 4092   1.383   4.632   1.335
 1355SOL    HW2 4093   1.536   4.592   1.374
 1356SOL     OW 4094   0.072   3.890   0.318
 1356SOL    HW1 4095   0.055   3.973   0.264
 1356SOL    HW2 4096   0.162   3.853   0.296
 1357SOL     OW 4097   1.183   5.059   0.119
 1357SOL    HW1 4098   1.084   5.048   0.121
 1357SOL    HW2 4099   1.217   5.074   0.212
 1358SOL     OW 4100   0.613   4.566   1.431
 1358SOL    HW1 4101   0.669   4.647   1.414
 1358SOL    HW2 4102   0.672   4.486   1.434
 1359SOL     OW 4103   0.716   4.289   1.708
 1359SOL    HW1 4104   0.735   4.354   1.782
 1359SOL    HW2 4105   0.776   4.209   1.717
 1360SOL     OW 4106   1.450   4.944   1.633
 1360SOL    HW1 4107   1.441   4.934   1.732
 1360SOL    HW2 4108   1.546   4.937   1.607
 1361SOL     OW 4109   1.674   4.607   1.254
 1361SOL    HW1 4110   1.647   4.518   1.217
 1361SOL    HW2 4111   1.675   4.675   1.181
 1362SOL     OW 4112   1.225   4.049   0.449
 1362SOL    HW1 4113   1.290   3.975   0.438
 1362SOL    HW2 4114   1.245   4.099   0.533
 1363SOL     OW 4115   0.594   4.469   0.652
 1363SOL    HW1 4116   0.644   4.554   0.633
 1363SOL    HW2 4117   0.506   4.471   0.604
 1364SOL     OW 4118   1.777   4.066   1.642
 1364SOL    HW1 4119   1.760   4.097   1.548
 1364SOL    HW2 4120   1.693   4.029   1.680
 1365SOL     OW 4121   1.730   4.658   1.517
 1365SOL    HW1 4122   1.768   4.749   1.532
 1365SOL    HW2 4123   1.722   4.641   1.418
 1366SOL     OW 4124   0.859   5.098   0.016
 1366SOL    HW1 4125   0.813   5.113   0.104
 1366SOL    HW2 4126   0.903   5.183  -0.014
 1367SOL     OW 4127   0.859   4.680   0.861
 1367SOL    HW1 4128   0.913   4.611   0.909
 1367SOL    HW2 4129   0.827   4.749   0.927
 1368SOL     OW 4130   1.083   4.708   0.087
 1368SOL    HW1 4131   1.060   4.761   0.005
 1368SOL    HW2 4132   1.164   4.652   0.068
 1369SOL     OW 4133   0.221   5.038   1.844
 1369SOL    HW1 4134   0.156   4.965   1.823
 1369SOL    HW2 4135   0.225   5.052   1.942
 1370SOL     OW 4136   0.079   4.964   0.653
 1370SOL    HW1 4137   0.078   4.917   0.741
 1370SOL    HW2 4138   0.161   4.936   0.602
 1371SOL     OW 4139   0.672   5.115   1.624
 1371SOL    HW1 4140   0.594   5.065   1.662
 1371SOL    HW2 4141   0.669   5.210   1.655
 1372SOL     OW 4142   1.824   3.916   1.227
 1372SOL    HW1 4143   1.820   3.826   1.271
 1372SOL    HW2 4144   1.827   3.905   1.128
 1373SOL     OW 4145   0.428   4.148   0.520
 1373SOL    HW1 4146   0.458   4.076   0.458
 1373SOL    HW2 4147   0.389   4.108   0.603
 1374SOL     OW 4148   1.705   5.211   1.104
 1374SOL    HW1 4149   1.612   5.186   1.077
 1374SOL    HW2 4150   1.731   5.161   1.186
 1375SOL     OW 4151   0.317   4.271   1.280
 1375SOL    HW1 4152   0.355   4.212   1.352
 1375SOL    HW2 4153   0.357   4.245   1.192
 1376SOL     OW 4154   1.424   3.938   1.112
 1376SOL    HW1 4155   1.476   3.873   1.167
 1376SOL    HW2 4156   1.375   4.001   1.173
 1377SOL     OW 4157   1.001   3.758   1.154
 1377SOL    HW1 4158   0.938   3.686   1.123
 1377SOL    HW2 4159   1.094   3.722   1.154
 1378SOL     OW 4160   0.770   5.054   0.301
 1378SOL    HW1 4161   0.724   4.967   0.318
 1378SOL    HW2 4162   0.861   5.051   0.342
 1379SOL     OW 4163   0.618   5.291   1.284
 1379SOL    HW1 4164   0.613   5.373   1.341
 1379SOL    HW2 4165   0.707   5.288   1.239
 1380SOL     OW 4166   1.352   3.776   0.168
 1380SOL    HW1 4167   1.387   3.735   0.084
 1380SOL    HW2 4168   1.262   3.738   0.188
 1381SOL     OW 4169   1.300   4.177   0.691
 1381SOL    HW1 4170   1.241   4.257   0.695
 1381SOL    HW2 4171   1.315   4.142   0.784
 1382SOL     OW 4172   1.593   3.945   0.882
 1382SOL    HW1 4173   1.509   3.944   0.936
 1382SOL    HW2 4174   1.595   4.028   0.826
 1383SOL     OW 4175   0.039   4.801   0.300
 1383SOL    HW1 4176   0.138   4.790   0.291
 1383SOL    HW2 4177  -0.001   4.715   0.332
 1384SOL     OW 4178   0.230   4.352   1.975
 1384SOL    HW1 4179   0.137   4.350   2.012
 1384SOL    HW2 4180   0.231   4.313   1.883
 1385SOL     OW 4181   0.225   3.999   2.858
 1385SOL    HW1 4182   0.260   3.982   2.950
 1385SOL    HW2 4183   0.137   3.954   2.846
 1386SOL     OW 4184   0.019   4.092   2.509
 1386SOL    HW1 4185  -0.063   4.135   2.548
 1386SOL    HW2 4186  -0.009   4.019   2.446
 1387SOL     OW 4187   0.569   4.999   3.027
 1387SOL    HW1 4188   0.476   4.992   2.990
 1387SOL    HW2 4189   0.580   5.088   3.071
 1388SOL     OW 4190   1.555   5.235   2.565
 1388SOL    HW1 4191   1.498   5.219   2.646
 1388SOL    HW2 4192   1.496   5.245   2.485
 1389SOL     OW 4193   1.135   4.427   2.579
 1389SOL    HW1 4194   1.192   4.505   2.554
 1389SOL    HW2 4195   1.075   4.453   2.655
 1390SOL     OW 4196   1.755   4.331   2.093
 1390SOL    HW1 4197   1.743   4.318   1.994
 1390SOL    HW2 4198   1.725   4.250   2.142
 1391SOL     OW 4199   0.768   4.868   2.885
 1391SOL    HW1 4200   0.690   4.885   2.945
 1391SOL    HW2 4201   0.802   4.955   2.849
 1392SOL     OW 4202   0.850   4.522   3.685
 1392SOL    HW1 4203   0.846   4.598   3.750
 1392SOL    HW2 4204   0.872   4.558   3.594
 1393SOL     OW 4205   0.685   4.736   2.527
 1393SOL    HW1 4206   0.754   4.720   2.597
 1393SOL    HW2 4207   0.612   4.793   2.565
 1394SOL     OW 4208   0.686   4.885   3.665
 1394SOL    HW1 4209   0.746   4.964   3.679
 1394SOL    HW2 4210   0.600   4.916   3.624
 1395SOL     OW 4211   0.335   5.159   2.923
 1395SOL    HW1 4212   0.257   5.128   2.870
 1395SOL    HW2 4213   0.393   5.217   2.866
 1396SOL     OW 4214   1.460   5.229   3.201
 1396SOL    HW1 4215   1.484   5.323   3.227
 1396SOL    HW2 4216   1.444   5.175   3.283
 1397SOL     OW 4217   0.438   4.116   3.361
 1397SOL    HW1 4218   0.520   4.060   3.370
 1397SOL    HW2 4219   0.357   4.058   3.365
 1398SOL     OW 4220   1.603   4.171   2.599
 1398SOL    HW1 4221   1.529   4.217   2.549
 1398SOL    HW2 4222   1.654   4.239   2.652
 1399SOL     OW 4223   0.231   5.437   2.345
 1399SOL    HW1 4224   0.265   5.514   2.399
 1399SOL    HW2 4225   0.275   5.437   2.255
 1400SOL     OW 4226   1.127   5.065   3.552
 1400SOL    HW1 4227   1.174   5.065   3.640
 1400SOL    HW2 4228   1.079   4.978   3.541
 1401SOL     OW 4229   0.230   5.158   2.400
 1401SOL    HW1 4230   0.204   5.254   2.400
 1401SOL    HW2 4231   0.159   5.104   2.445
 1402SOL     OW 4232   0.240   4.815   2.748
 1402SOL    HW1 4233   0.254   4.731   2.800
 1402SOL    HW2 4234   0.185   4.879   2.803
 1403SOL     OW 4235   0.606   4.688   1.985
 1403SOL    HW1 4236   0.613   4.772   1.931
 1403SOL    HW2 4237   0.652   4.701   2.073
 1404SOL     OW 4238   1.594   3.838   3.342
 1404SOL    HW1 4239   1.576   3.905   3.270
 1404SOL    HW2 4240   1.591   3.884   3.431
 1405SOL     OW 4241   0.122   4.367   2.425
 1405SOL    HW1 4242   0.077   4.279   2.442
 1405SOL    HW2 4243   0.121   4.421   2.509
 1406SOL     OW 4244   0.027   5.320   1.979
 1406SOL    HW1 4245   0.008   5.224   2.000
 1406SOL    HW2 4246  -0.006   5.378   2.054
 1407SOL     OW 4247   1.689   4.646   2.474
 1407SOL    HW1 4248   1.784   4.617   2.482
 1407SOL    HW2 4249   1.681   4.711   2.399
 1408SOL     OW 4250   1.641   4.832   2.294
 1408SOL    HW1 4251   1.727   4.834   2.242
 1408SOL    HW2 4252   1.655   4.879   2.382
 1409SOL     OW 4253   0.113   4.461   3.459
 1409SOL    HW1 4254   0.201   4.448   3.504
 1409SOL    HW2 4255   0.100   4.558   3.437
 1410SOL     OW 4256   0.613   5.089   2.588
 1410SOL    HW1 4257   0.564   5.002   2.597
 1410SOL    HW2 4258   0.590   5.132   2.501
 1411SOL     OW 4259   1.293   4.952   3.285
 1411SOL    HW1 4260   1.330   4.879   3.227
 1411SOL    HW2 4261   1.345   4.957   3.370
 1412SOL     OW 4262   0.809   3.728   2.364
 1412SOL    HW1 4263   0.849   3.819   2.355
 1412SOL    HW2 4264   0.709   3.736   2.370
 1413SOL     OW 4265   0.197   4.700   3.126
 1413SOL    HW1 4266   0.286   4.655   3.112
 1413SOL    HW2 4267   0.124   4.635   3.107
 1414SOL     OW 4268   1.525   4.723   2.052
 1414SOL    HW1 4269   1.462   4.647   2.065
 1414SOL    HW2 4270   1.573   4.741   2.138
 1415SOL     OW 4271   0.317   3.975   3.663
 1415SOL    HW1 4272   0.388   4.046   3.669
 1415SOL    HW2 4273   0.229   4.014   3.691
 1416SOL     OW 4274   1.466   5.141   2.815
 1416SOL    HW1 4275   1.407   5.147   2.895
 1416SOL    HW2 4276   1.451   5.053   2.769
 1417SOL     OW 4277   0.598   4.453   2.132
 1417SOL    HW1 4278   0.622   4.522   2.064
 1417SOL    HW2 4279   0.520   4.486   2.186
 1418SOL     OW 4280   1.281   4.069   2.806
 1418SOL    HW1 4281   1.195   4.019   2.793
 1418SOL    HW2 4282   1.343   4.015   2.862
 1419SOL     OW 4283   0.807   4.329   3.327
 1419SOL    HW1 4284   0.760   4.326   3.416
 1419SOL    HW2 4285   0.756   4.274   3.261
 1420SOL     OW 4286   1.394   4.193   3.536
 1420SOL    HW1 4287   1.374   4.236   3.624
 1420SOL    HW2 4288   1.472   4.131   3.545
 1421SOL     OW 4289   0.973   4.614   3.434
 1421SOL    HW1 4290   1.019   4.530   3.405
 1421SOL    HW2 4291   0.917   4.648   3.359
 1422SOL     OW 4292   0.991   4.134   3.104
 1422SOL    HW1 4293   0.914   4.168   3.158
 1422SOL    HW2 4294   0.957   4.083   3.025
 1423SOL     OW 4295   1.041   4.425   2.291
 1423SOL    HW1 4296   1.067   4.421   2.387
 1423SOL    HW2 4297   0.956   4.374   2.277
 1424SOL     OW 4298   0.076   4.535   2.651
 1424SOL    HW1 4299   0.175   4.523   2.660
 1424SOL    HW2 4300   0.052   4.630   2.672
 1425SOL     OW 4301   0.865   4.072   2.057
 1425SOL    HW1 4302   0.924   4.135   2.008
 1425SOL    HW2 4303   0.884   3.978   2.028
 1426SOL     OW 4304   1.719   4.309   3.693
 1426SOL    HW1 4305   1.693   4.398   3.657
 1426SOL    HW2 4306   1.717   4.241   3.620
 1427SOL     OW 4307   1.362   4.868   2.407
 1427SOL    HW1 4308   1.445   4.839   2.359
 1427SOL    HW2 4309   1.313   4.935   2.351
 1428SOL     OW 4310   0.550   3.920   2.747
 1428SOL    HW1 4311   0.545   3.915   2.847
 1428SOL    HW2 4312   0.552   4.016   2.718
 1429SOL     OW 4313   1.008   5.180   2.339
 1429SOL    HW1 4314   0.962   5.252   2.287
 1429SOL    HW2 4315   1.004   5.200   2.437
 1430SOL     OW 4316   1.795   4.790   2.735
 1430SOL    HW1 4317   1.733   4.775   2.659
 1430SOL    HW2 4318   1.743   4.801   2.820
 1431SOL     OW 4319   1.227   5.274   3.368
 1431SOL    HW1 4320   1.233   5.197   3.432
 1431SOL    HW2 4321   1.175   5.248   3.288
 1432SOL     OW 4322   0.321   4.667   2.104
 1432SOL    HW1 4323   0.403   4.706   2.062
 1432SOL    HW2 4324   0.294   4.585   2.055
 1433SOL     OW 4325   1.458   4.459   2.590
 1433SOL    HW1 4326   1.453   4.394   2.665
 1433SOL    HW2 4327   1.538   4.518   2.603
 1434SOL     OW 4328   0.461   4.990   3.589
 1434SOL    HW1 4329   0.411   4.991   3.503
 1434SOL    HW2 4330   0.398   4.972   3.665
 1435SOL     OW 4331   1.111   5.500   2.099
 1435SOL    HW1 4332   1.051   5.438   2.149
 1435SOL    HW2 4333   1.142   5.456   2.014
 1436SOL     OW 4334   0.202   4.009   3.360
 1436SOL    HW1 4335   0.122   4.069   3.347
 1436SOL    HW2 4336   0.192   3.960   3.446
 1437SOL     OW 4337   1.632   5.101   1.943
 1437SOL    HW1 4338   1.600   5.195   1.933
 1437SOL    HW2 4339   1.556   5.038   1.931
 1438SOL     OW 4340   1.400   3.831   2.288
 1438SOL    HW1 4341   1.376   3.794   2.198
 1438SOL    HW2 4342   1.499   3.847   2.292
 1439SOL     OW 4343   0.382   4.424   2.342
 1439SOL    HW1 4344   0.427   4.334   2.339
 1439SOL    HW2 4345   0.288   4.413   2.375
 1440SOL     OW 4346   1.547   3.946   3.591
 1440SOL    HW1 4347   1.542   3.983   3.683
 1440SOL    HW2 4348   1.475   3.877   3.579
 1441SOL     OW 4349   0.614   3.846   1.979
 1441SOL    HW1 4350   0.712   3.824   1.986
 1441SOL    HW2 4351   0.583   3.829   1.886
 1442SOL     OW 4352   0.781   3.988   3.611
 1442SOL    HW1 4353   0.848   3.927   3.654
 1442SOL    HW2 4354   0.708   4.007   3.676
 1443SOL     OW 4355   1.351   4.314   3.295
 1443SOL    HW1 4356   1.379   4.271   3.380
 1443SOL    HW2 4357   1.376   4.410   3.296
 1444SOL     OW 4358   0.803   5.126   2.786
 1444SOL    HW1 4359   0.893   5.140   2.744
 1444SOL    HW2 4360   0.732   5.128   2.715
 1445SOL     OW 4361   0.922   4.227   2.761
 1445SOL    HW1 4362   0.897   4.218   2.665
 1445SOL    HW2 4363   0.970   4.145   2.792
 1446SOL     OW 4364   0.539   3.788   2.374
 1446SOL    HW1 4365   0.458   3.789   2.432
 1446SOL    HW2 4366   0.542   3.871   2.319
 1447SOL     OW 4367   1.434   4.912   1.903
 1447SOL    HW1 4368   1.466   4.836   1.960
 1447SOL    HW2 4369   1.342   4.939   1.933
 1448SOL     OW 4370   0.297   3.759   2.033
 1448SOL    HW1 4371   0.346   3.843   2.012
 1448SOL    HW2 4372   0.359   3.694   2.078
 1449SOL     OW 4373   0.935   3.960   2.342
 1449SOL    HW1 4374   0.887   4.001   2.264
 1449SOL    HW2 4375   1.034   3.958   2.323
 1450SOL     OW 4376   1.076   4.407   3.326
 1450SOL    HW1 4377   0.996   4.346   3.329
 1450SOL    HW2 4378   1.157   4.354   3.302
 1451SOL     OW 4379   1.227   5.294   2.655
 1451SOL    HW1 4380   1.248   5.368   2.590
 1451SOL    HW2 4381   1.295   5.294   2.728
 1452SOL     OW 4382   0.459   4.876   2.603
 1452SOL    HW1 4383   0.388   4.849   2.668
 1452SOL    HW2 4384   0.433   4.848   2.510
 1453SOL     OW 4385   1.032   4.273   1.878
 1453SOL    HW1 4386   0.991   4.355   1.839
 1453SOL    HW2 4387   1.096   4.299   1.951
 1454SOL     OW 4388   0.078   4.280   3.248
 1454SOL    HW1 4389   0.170   4.279   3.207
 1454SOL    HW2 4390   0.072   4.354   3.315
 1455SOL     OW 4391   0.561   3.946   3.009
 1455SOL    HW1 4392   0.599   3.862   3.046
 1455SOL    HW2 4393   0.473   3.965   3.053
 1456SOL     OW 4394   0.866   4.178   2.504
 1456SOL    HW1 4395   0.834   4.250   2.442
 1456SOL    HW2 4396   0.890   4.097   2.451
 1457SOL     OW 4397   1.017   3.763   2.615
 1457SOL    HW1 4398   0.945   3.768   2.546
 1457SOL    HW2 4399   0.993   3.694   2.684
 1458SOL     OW 4400   1.429   4.897   2.729
 1458SOL    HW1 4401   1.374   4.813   2.722
 1458SOL    HW2 4402   1.455   4.926   2.637
 1459SOL     OW 4403   1.466   4.314   2.854
 1459SOL    HW1 4404   1.436   4.219   2.861
 1459SOL    HW2 4405   1.539   4.330   2.920
 1460SOL     OW 4406   1.857   4.557   2.239
 1460SOL    HW1 4407   1.899   4.493   2.303
 1460SOL    HW2 4408   1.819   4.506   2.161
 1461SOL     OW 4409   0.488   5.109   2.036
 1461SOL    HW1 4410   0.401   5.094   2.083
 1461SOL    HW2 4411   0.471   5.135   1.941
 1462SOL     OW 4412   1.664   5.004   2.519
 1462SOL    HW1 4413   1.763   5.012   2.533
 1462SOL    HW2 4414   1.619   5.088   2.550
 1463SOL     OW 4415   1.390   4.299   1.940
 1463SOL    HW1 4416   1.336   4.278   2.021
 1463SOL    HW2 4417   1.481   4.258   1.949
 1464SOL     OW 4418   0.527   3.980   2.190
 1464SOL    HW1 4419   0.554   3.921   2.115
 1464SOL    HW2 4420   0.527   4.075   2.159
 1465SOL     OW 4421   1.754   4.947   3.450
 1465SOL    HW1 4422   1.845   4.908   3.437
 1465SOL    HW2 4423   1.762   5.043   3.474
 1466SOL     OW 4424   1.064   5.071   3.202
 1466SOL    HW1 4425   0.984   5.048   3.257
 1466SOL    HW2 4426   1.147   5.045   3.251
 1467SOL     OW 4427   1.111   4.919   2.962
 1467SOL    HW1 4428   1.071   4.963   3.043
 1467SOL    HW2 4429   1.070   4.956   2.879
 1468SOL     OW 4430   1.638   4.823   2.941
 1468SOL    HW1 4431   1.643   4.904   3.000
 1468SOL    HW2 4432   1.552   4.825   2.890
 1469SOL     OW 4433   0.915   3.813   3.264
 1469SOL    HW1 4434   0.940   3.793   3.169
 1469SOL    HW2 4435   0.987   3.869   3.306
 1470SOL     OW 4436   0.980   4.840   3.581
 1470SOL    HW1 4437   0.881   4.846   3.591
 1470SOL    HW2 4438   1.003   4.760   3.525
 1471SOL     OW 4439   0.705   4.774   2.230
 1471SOL    HW1 4440   0.691   4.781   2.329
 1471SOL    HW2 4441   0.789   4.723   2.212
 1472SOL     OW 4442   0.410   4.537   3.113
 1472SOL    HW1 4443   0.496   4.549   3.163
 1472SOL    HW2 4444   0.368   4.450   3.140
 1473SOL     OW 4445   1.274   4.110   3.124
 1473SOL    HW1 4446   1.295   4.184   3.188
 1473SOL    HW2 4447   1.185   4.127   3.081
 1474SOL     OW 4448   0.064   5.288   3.193
 1474SOL    HW1 4449   0.018   5.370   3.159
 1474SOL    HW2 4450   0.162   5.307   3.202
 1475SOL     OW 4451   0.367   4.824   2.363
 1475SOL    HW1 4452   0.360   4.907   2.307
 1475SOL    HW2 4453   0.371   4.744   2.303
 1476SOL     OW 4454   0.566   4.261   2.727
 1476SOL    HW1 4455   0.578   4.327   2.653
 1476SOL    HW2 4456   0.612   4.295   2.810
 1477SOL     OW 4457   1.252   5.072   2.250
 1477SOL    HW1 4458   1.302   5.149   2.290
 1477SOL    HW2 4459   1.157   5.074   2.282
 1478SOL     OW 4460   1.272   5.169   3.004
 1478SOL    HW1 4461   1.319   5.182   3.091
 1478SOL    HW2 4462   1.206   5.095   3.013
 1479SOL     OW 4463   1.582   4.363   2.334
 1479SOL    HW1 4464   1.551   4.424   2.407
 1479SOL    HW2 4465   1.632   4.415   2.265
 1480SOL     OW 4466   0.354   5.234   3.191
 1480SOL    HW1 4467   0.333   5.190   3.104
 1480SOL    HW2 4468   0.451   5.260   3.194
 1481SOL     OW 4469   0.402   4.475   3.460
 1481SOL    HW1 4470   0.470   4.530   3.413
 1481SOL    HW2 4471   0.442   4.387   3.487
 1482SOL     OW 4472   1.587   4.503   3.532
 1482SOL    HW1 4473   1.495   4.541   3.527
 1482SOL    HW2 4474   1.647   4.550   3.467
 1483SOL     OW 4475   1.013   3.829   3.632
 1483SOL    HW1 4476   1.019   3.914   3.580
 1483SOL    HW2 4477   1.045   3.753   3.575
 1484SOL     OW 4478   0.504   3.774   3.602
 1484SOL    HW1 4479   0.462   3.717   3.532
 1484SOL    HW2 4480   0.438   3.843   3.634
 1485SOL     OW 4481   0.573   4.594   2.891
 1485SOL    HW1 4482   0.617   4.683   2.882
 1485SOL    HW2 4483   0.510   4.594   2.968
 1486SOL     OW 4484   1.360   4.586   2.907
 1486SOL    HW1 4485   1.285   4.586   2.841
 1486SOL    HW2 4486   1.397   4.494   2.916
 1487SOL     OW 4487   1.209   4.249   2.137
 1487SOL    HW1 4488   1.222   4.165   2.191
 1487SOL    HW2 4489   1.180   4.323   2.197
 1488SOL     OW 4490   0.307   3.937   3.093
 1488SOL    HW1 4491   0.284   3.974   3.183
 1488SOL    HW2 4492   0.277   3.842   3.087
 1489SOL     OW 4493   0.037   5.034   3.144
 1489SOL    HW1 4494   0.090   4.985   3.212
 1489SOL    HW2 4495   0.059   5.132   3.149
 1490SOL     OW 4496   0.732   4.358   2.926
 1490SOL    HW1 4497   0.791   4.332   2.850
 1490SOL    HW2 4498   0.704   4.454   2.915
 1491SOL     OW 4499   1.728   4.659   3.716
 1491SOL    HW1 4500   1.682   4.652   3.627
 1491SOL    HW2 4501   1.666   4.703   3.782
 1492SOL     OW 4502   0.307   3.787   2.480
 1492SOL    HW1 4503   0.296   3.881   2.513
 1492SOL    HW2 4504   0.302   3.724   2.557
 1493SOL     OW 4505   1.622   4.091   2.236
 1493SOL    HW1 4506   1.624   4.015   2.300
 1493SOL    HW2 4507   1.574   4.168   2.276
 1494SOL     OW 4508   1.023   4.490   2.828
 1494SOL    HW1 4509   1.038   4.511   2.924
 1494SOL    HW2 4510   0.993   4.395   2.819
 1495SOL     OW 4511   1.859   5.242   3.467
 1495SOL    HW1 4512   1.873   5.269   3.372
 1495SOL    HW2 4513   1.942   5.264   3.520
 1496SOL     OW 4514   0.350   4.622   3.666
 1496SOL    HW1 4515   0.426   4.666   3.714
 1496SOL    HW2 4516   0.385   4.575   3.584
 1497SOL     OW 4517   1.540   3.998   1.987
 1497SOL    HW1 4518   1.479   3.923   2.010
 1497SOL    HW2 4519   1.562   4.050   2.070
 1498SOL     OW 4520   1.303   4.562   1.904
 1498SOL    HW1 4521   1.337   4.469   1.919
 1498SOL    HW2 4522   1.321   4.589   1.809
 1499SOL     OW 4523   1.068   5.057   2.711
 1499SOL    HW1 4524   1.075   4.973   2.656
 1499SOL    HW2 4525   1.130   5.126   2.675
 1500SOL     OW 4526   0.319   4.534   2.811
 1500SOL    HW1 4527   0.412   4.570   2.816
 1500SOL    HW2 4528   0.313   4.449   2.863
 1501SOL     OW 4529   0.339   4.233   2.868
 1501SOL    HW1 4530   0.287   4.150   2.851
 1501SOL    HW2 4531   0.416   4.238   2.804
 1502SOL     OW 4532   1.138   4.104   3.540
 1502SOL    HW1 4533   1.093   4.167   3.604
 1502SOL    HW2 4534   1.231   4.135   3.523
 1503SOL     OW 4535   1.160   3.931   3.339
 1503SOL    HW1 4536   1.160   3.995   3.416
 1503SOL    HW2 4537   1.188   3.979   3.256
 1504SOL     OW 4538   0.008   5.050   2.062
 1504SOL    HW1 4539  -0.085   5.071   2.031
 1504SOL    HW2 4540   0.018   4.951   2.075
 1505SOL     OW 4541   1.002   4.520   3.100
 1505SOL    HW1 4542   1.043   4.488   3.186
 1505SOL    HW2 4543   0.906   4.493   3.097
 1506SOL     OW 4544   0.040   4.268   2.976
 1506SOL    HW1 4545   0.125   4.235   2.935
 1506SOL    HW2 4546   0.053   4.283   3.074
 1507SOL     OW 4547   0.189   4.244   3.584
 1507SOL    HW1 4548   0.248   4.204   3.514
 1507SOL    HW2 4549   0.131   4.315   3.543
 1508SOL     OW 4550   1.369   4.674   3.522
 1508SOL    HW1 4551   1.408   4.763   3.542
 1508SOL    HW2 4552   1.379   4.654   3.425
 1509SOL     OW 4553   0.815   4.296   2.187
 1509SOL    HW1 4554   0.822   4.207   2.141
 1509SOL    HW2 4555   0.721   4.330   2.179
 1510SOL     OW 4556   1.657   4.328   3.068
 1510SOL    HW1 4557   1.619   4.259   3.130
 1510SOL    HW2 4558   1.739   4.292   3.024
 1511SOL     OW 4559   0.252   5.288   3.606
 1511SOL    HW1 4560   0.222   5.345   3.682
 1511SOL    HW2 4561   0.245   5.191   3.632
 1512SOL     OW 4562   0.671   4.188   3.131
 1512SOL    HW1 4563   0.637   4.099   3.101
 1512SOL    HW2 4564   0.697   4.242   3.051
 1513SOL     OW 4565   0.473   4.224   2.053
 1513SOL    HW1 4566   0.534   4.304   2.057
 1513SOL    HW2 4567   0.378   4.255   2.060
 1514SOL     OW 4568   0.159   4.861   3.328
 1514SOL    HW1 4569   0.181   4.800   3.404
 1514SOL    HW2 4570   0.169   4.812   3.242
 1515SOL     OW 4571   1.347   4.783   3.096
 1515SOL    HW1 4572   1.371   4.720   3.022
 1515SOL    HW2 4573   1.257   4.823   3.078
 1516SOL     OW 4574   1.302   4.579   2.171
 1516SOL    HW1 4575   1.216   4.548   2.213
 1516SOL    HW2 4576   1.298   4.565   2.072
 1517SOL     OW 4577   0.083   4.982   2.884
 1517SOL    HW1 4578   0.078   4.981   2.984
 1517SOL    HW2 4579   0.000   4.941   2.846
 1518SOL     OW 4580   1.726   3.859   2.385
 1518SOL    HW1 4581   1.799   3.842   2.318
 1518SOL    HW2 4582   1.695   3.772   2.423
 1519SOL     OW 4583   1.280   4.651   2.534
 1519SOL    HW1 4584   1.340   4.570   2.536
 1519SOL    HW2 4585   1.320   4.720   2.474
 1520SOL     OW 4586   0.830   4.997   3.284
 1520SOL    HW1 4587   0.825   5.030   3.379
 1520SOL    HW2 4588   0.744   5.016   3.238
 1521SOL     OW 4589   1.841   3.899   2.825
 1521SOL    HW1 4590   1.880   3.814   2.789
 1521SOL    HW2 4591   1.743   3.901   2.806
 1522SOL     OW 4592   0.263   4.050   2.582
 1522SOL    HW1 4593   0.184   4.101   2.548
 1522SOL    HW2 4594   0.254   4.035   2.680
 1523SOL     OW 4595   0.822   4.726   3.234
 1523SOL    HW1 4596   0.862   4.725   3.142
 1523SOL    HW2 4597   0.832   4.818   3.274
 1524SOL     OW 4598   0.916   4.634   2.153
 1524SOL    HW1 4599   0.979   4.672   2.085
 1524SOL    HW2 4600   0.956   4.551   2.192
 1525SOL     OW 4601   0.372   5.012   3.352
 1525SOL    HW1 4602   0.359   5.105   3.318
 1525SOL    HW2 4603   0.288   4.960   3.339
 1526SOL     OW 4604   1.614   5.016   3.151
 1526SOL    HW1 4605   1.674   5.019   3.231
 1526SOL    HW2 4606   1.539   5.080   3.164
 1527SOL     OW 4607   1.039   4.822   2.558
 1527SOL    HW1 4608   0.969   4.775   2.612
 1527SOL    HW2 4609   1.098   4.754   2.515
 1528SOL     OW 4610   1.014   3.960   2.833
 1528SOL    HW1 4611   1.006   3.924   2.740
 1528SOL    HW2 4612   1.012   3.884   2.898
 1529SOL     OW 4613   1.709   4.109   3.243
 1529SOL    HW1 4614   1.782   4.178   3.247
 1529SOL    HW2 4615   1.737   4.034   3.184
 1530SOL     OW 4616   0.255   5.072   2.152
 1530SOL    HW1 4617   0.159   5.073   2.125
 1530SOL    HW2 4618   0.267   5.125   2.236
 1531SOL     OW 4619   0.105   4.737   3.588
 1531SOL    HW1 4620   0.028   4.704   3.642
 1531SOL    HW2 4621   0.190   4.707   3.630
 1532SOL     OW 4622   0.672   3.927   3.351
 1532SOL    HW1 4623   0.762   3.911   3.311
 1532SOL    HW2 4624   0.680   3.932   3.450
 1533SOL     OW 4625   0.075   4.069   1.895
 1533SOL    HW1 4626  -0.017   4.041   1.866
 1533SOL    HW2 4627   0.106   4.146   1.839
 1534SOL     OW 4628   1.440   4.580   3.260
 1534SOL    HW1 4629   1.383   4.632   3.197
 1534SOL    HW2 4630   1.536   4.592   3.236
 1535SOL     OW 4631   0.072   3.890   2.180
 1535SOL    HW1 4632   0.055   3.973   2.126
 1535SOL    HW2 4633   0.162   3.853   2.158
 1536SOL     OW 4634   1.183   5.059   1.981
 1536SOL    HW1 4635   1.084   5.048   1.983
 1536SOL    HW2 4636   1.217   5.074   2.074
 1537SOL     OW 4637   0.613   4.566   3.293
 1537SOL    HW1 4638   0.669   4.647   3.276
 1537SOL    HW2 4639   0.672   4.486   3.296
 1538SOL     OW 4640   0.716   4.289   3.570
 1538SOL    HW1 4641   0.735   4.354   3.644
 1538SOL    HW2 4642   0.776   4.209   3.579
 1539SOL     OW 4643   1.450   4.944   3.495
 1539SOL    HW1 4644   1.441   4.934   3.594
 1539SOL    HW2 4645   1.546   4.937   3.469
 1540SOL     OW 4646   1.674   4.607   3.116
 1540SOL    HW1 4647   1.647   4.518   3.079
 1540SOL    HW2 4648   1.675   4.675   3.043
 1541SOL     OW 4649   1.225   4.049   2.311
 1541SOL    HW1 4650   1.290   3.975   2.300
 1541SOL    HW2 4651   1.245   4.099   2.395
 1542SOL     OW 4652   0.594   4.469   2.514
 1542SOL    HW1 4653   0.644   4.554   2.495
 1542SOL    HW2 4654   0.506   4.471   2.466
 1543SOL     OW 4655   1.777   4.066   3.504
 1543SOL    HW1 4656   1.760   4.097   3.410
 1543SOL    HW2 4657   1.693   4.029   3.542
 1544SOL     OW 4658   1.730   4.658   3.379
 1544SOL    HW1 4659   1.768   4.749   3.394
 1544SOL    HW2 4660   1.722   4.641   3.280
 1545SOL     OW 4661   0.859   5.098   1.878
 1545SOL    HW1 4662   0.813   5.113   1.966
 1545SOL    HW2 4663   0.903   5.183   1.848
 1546SOL     OW 4664   0.859   4.680   2.723
 1546SOL    HW1 4665   0.913   4.611   2.771
 1546SOL    HW2 4666   0.827   4.749   2.789
 1547SOL     OW 4667   1.083   4.708   1.949
 1547SOL    HW1 4668   1.060   4.761   1.867
 1547SOL    HW2 4669   1.164   4.652   1.930
 1548SOL     OW 4670   0.221   5.038   3.706
 1548SOL    HW1 4671   0.156   4.965   3.685
 1548SOL    HW2 4672   0.225   5.052   3.804
 1549SOL     OW 4673   0.079   4.964   2.515
 1549SOL    HW1 4674   0.078   4.917   2.603
 1549SOL    HW2 4675   0.161   4.936   2.464
 1550SOL     OW 4676   0.672   5.115   3.486
 1550SOL    HW1 4677   0.594   5.065   3.524
 1550SOL    HW2 4678   0.669   5.210   3.517
 1551SOL     OW 4679   1.824   3.916   3.089
 1551SOL    HW1 4680   1.820   3.826   3.133
 1551SOL    HW2 4681   1.827   3.905   2.990
 1552SOL     OW 4682   0.428   4.148   2.382
 1552SOL    HW1 4683   0.458   4.076   2.320
 1552SOL    HW2 4684   0.389   4.108   2.465
 1553SOL     OW 4685   1.705   5.211   2.966
 1553SOL    HW1 4686   1.612   5.186   2.939
 1553SOL    HW2 4687   1.731   5.161   3.048
 1554SOL     OW 4688   0.317   4.271   3.142
 1554SOL    HW1 4689   0.355   4.212   3.214
 1554SOL    HW2 4690   0.357   4.245   3.054
 1555SOL     OW 4691   1.424   3.938   2.974
 1555SOL    HW1 4692   1.476   3.873   3.029
 1555SOL    HW2 4693   1.375   4.001   3.035
 1556SOL     OW 4694   1.001   3.758   3.016
 1556SOL    HW1 4695   0.938   3.686   2.985
 1556SOL    HW2 4696   1.094   3.722   3.016
 1557SOL     OW 4697   0.770   5.054   2.163
 1557SOL    HW1 4698   0.724   4.967   2.180
 1557SOL    HW2 4699   0.861   5.051   2.204
 1558SOL     OW 4700   0.618   5.291   3.146
 1558SOL    HW1 4701   0.613   5.373   3.203
 1558SOL    HW2 4702   0.707   5.288   3.101
 1559SOL     OW 4703   1.352   3.776   2.030
 1559SOL    HW1 4704   1.387   3.735   1.946
 1559SOL    HW2 4705   1.262   3.738   2.050
 1560SOL     OW 4706   1.300   4.177   2.553
 1560SOL    HW1 4707   1.241   4.257   2.557
 1560SOL    HW2 4708   1.315   4.142   2.646
 1561SOL     OW 4709   1.593   3.945   2.744
 1561SOL    HW1 4710   1.509   3.944   2.798
 1561SOL    HW2 4711   1.595   4.028   2.688
 1562SOL     OW 4712   0.039   4.801   2.162
 1562SOL    HW1 4713   0.138   4.790   2.153
 1562SOL    HW2 4714  -0.001   4.715   2.194
 1563SOL     OW 4715   0.230   4.352   3.837
 1563SOL    HW1 4716   0.137   4.350   3.874
 1563SOL    HW2 4717   0.231   4.313   3.745
 1564SOL     OW 4718   0.225   3.999   4.720
 1564SOL    HW1 4719   0.260   3.982   4.812
 1564SOL    HW2 4720   0.137   3.954   4.708
 1565SOL     OW 4721   0.019   4.092   4.371
 1565SOL    HW1 4722  -0.063   4.135   4.410
 1565SOL    HW2 4723  -0.009   4.019   4.308
 1566SOL     OW 4724   0.569   4.999   4.889
 1566SOL    HW1 4725   0.476   4.992   4.852
 1566SOL    HW2 4726   0.580   5.088   4.933
 1567SOL     OW 4727   1.555   5.235   4.427
 1567SOL    HW1 4728   1.498   5.219   4.508
 1567SOL    HW2 4729   1.496   5.245   4.347
 1568SOL     OW 4730   1.135   4.427   4.441
 1568SOL    HW1 4731   1.192   4.505   4.416
 1568SOL    HW2 4732   1.075   4.453   4.517
 1569SOL     OW 4733   1.755   4.331   3.955
 1569SOL    HW1 4734   1.743   4.318   3.856
 1569SOL    HW2 4735   1.725   4.250   4.004
 1570SOL     OW 4736   0.768   4.868   4.747
 1570SOL    HW1 4737   0.690   4.885   4.807
 1570SOL    HW2 4738   0.802   4.955   4.711
 1571SOL     OW 4739   0.685   4.736   4.389
 1571SOL    HW1 4740   0.754   4.720   4.459
 1571SOL    HW2 4741   0.612   4.793   4.427
 1572SOL     OW 4742   0.335   5.159   4.785
 1572SOL    HW1 4743   0.257   5.128   4.732
 1572SOL    HW2 4744   0.393   5.217   4.728
 1573SOL     OW 4745   1.460   5.229   5.063
 1573SOL    HW1 4746   1.484   5.323   5.089
 1573SOL    HW2 4747   1.444   5.175   5.145
 1574SOL     OW 4748   0.438   4.116   5.223
 1574SOL    HW1 4749   0.520   4.060   5.232
 1574SOL    HW2 4750   0.357   4.058   5.227
 1575SOL     OW 4751   1.603   4.171   4.461
 1575SOL    HW1 4752   1.529   4.217   4.411
 1575SOL    HW2 4753   1.654   4.239   4.514
 1576SOL     OW 4754   0.231   5.437   4.207
 1576SOL    HW1 4755   0.265   5.514   4.261
 1576SOL    HW2 4756   0.275   5.437   4.117
 1577SOL     OW 4757   0.230   5.158   4.262
 1577SOL    HW1 4758   0.204   5.254   4.262
 1577SOL    HW2 4759   0.159   5.104   4.307
 1578SOL     OW 4760   0.240   4.815   4.610
 1578SOL    HW1 4761   0.254   4.731   4.662
 1578SOL    HW2 4762   0.185   4.879   4.665
 1579SOL     OW 4763   0.606   4.688   3.847
 1579SOL    HW1 4764   0.613   4.772   3.793
 1579SOL    HW2 4765   0.652   4.701   3.935
 1580SOL     OW 4766   1.594   3.838   5.204
 1580SOL    HW1 4767   1.576   3.905   5.132
 1580SOL    HW2 4768   1.591   3.884   5.293
 1581SOL     OW 4769   0.122   4.367   4.287
 1581SOL    HW1 4770   0.077   4.279   4.304
 1581SOL    HW2 4771   0.121   4.421   4.371
 1582SOL     OW 4772   0.027   5.320   3.841
 1582SOL    HW1 4773   0.008   5.224   3.862
 1582SOL    HW2 4774  -0.006   5.378   3.916
 1583SOL     OW 4775   1.689   4.646   4.336
 1583SOL    HW1 4776   1.784   4.617   4.344
 1583SOL    HW2 4777   1.681   4.711   4.261
 1584SOL     OW 4778   1.641   4.832   4.156
 1584SOL    HW1 4779   1.727   4.834   4.104
 1584SOL    HW2 4780   1.655   4.879   4.244
 1585SOL     OW 4781   0.613   5.089   4.450
 1585SOL    HW1 4782   0.564   5.002   4.459
 1585SOL    HW2 4783   0.590   5.132   4.363
 1586SOL     OW 4784   0.809   3.728   4.226
 1586SOL    HW1 4785   0.849   3.819   4.217
 1586SOL    HW2 4786   0.709   3.736   4.232
 1587SOL     OW 4787   0.197   4.700   4.988
 1587SOL    HW1 4788   0.286   4.655   4.974
 1587SOL    HW2 4789   0.124   4.635   4.969
 1588SOL     OW 4790   1.525   4.723   3.914
 1588SOL    HW1 4791   1.462   4.647   3.927
 1588SOL    HW2 4792   1.573   4.741   4.000
 1589SOL     OW 4793   0.317   3.975   5.525
 1589SOL    HW1 4794   0.388   4.046   5.531
 1589SOL    HW2 4795   0.229   4.014   5.553
 1590SOL     OW 4796   1.466   5.141   4.677
 1590SOL    HW1 4797   1.407   5.147   4.757
 1590SOL    HW2 4798   1.451   5.053   4.631
 1591SOL     OW 4799   0.598   4.453   3.994
 1591SOL    HW1 4800   0.622   4.522   3.926
 1591SOL    HW2 4801   0.520   4.486   4.048
 1592SOL     OW 4802   1.281   4.069   4.668
 1592SOL    HW1 4803   1.195   4.019   4.655
 1592SOL    HW2 4804   1.343   4.015   4.724
 1593SOL     OW 4805   0.807   4.329   5.189
 1593SOL    HW1 4806   0.760   4.326   5.278
 1593SOL    HW2 4807   0.756   4.274   5.123
 1594SOL     OW 4808   0.991   4.134   4.966
 1594SOL    HW1 4809   0.914   4.168   5.020
 1594SOL    HW2 4810   0.957   4.083   4.887
 1595SOL     OW 4811   1.041   4.425   4.153
 1595SOL    HW1 4812   1.067   4.421   4.249
 1595SOL    HW2 4813   0.956   4.374   4.139
 1596SOL     OW 4814   0.076   4.535   4.513
 1596SOL    HW1 4815   0.175   4.523   4.522
 1596SOL    HW2 4816   0.052   4.630   4.534
 1597SOL     OW 4817   0.865   4.072   3.919
 1597SOL    HW1 4818   0.924   4.135   3.870
 1597SOL    HW2 4819   0.884   3.978   3.890
 1598SOL     OW 4820   1.362   4.868   4.269
 1598SOL    HW1 4821   1.445   4.839   4.221
 1598SOL    HW2 4822   1.313   4.935   4.213
 1599SOL     OW 4823   0.550   3.920   4.609
 1599SOL    HW1 4824   0.545   3.915   4.709
 1599SOL    HW2 4825   0.552   4.016   4.580
 1600SOL     OW 4826   1.008   5.180   4.201
 1600SOL    HW1 4827   0.962   5.252   4.149
 1600SOL    HW2 4828   1.004   5.200   4.299
 1601SOL     OW 4829   1.795   4.790   4.597
 1601SOL    HW1 4830   1.733   4.775   4.521
 1601SOL    HW2 4831   1.743   4.801   4.682
 1602SOL     OW 4832   0.321   4.667   3.966
 1602SOL    HW1 4833   0.403   4.706   3.924
 1602SOL    HW2 4834   0.294   4.585   3.917
 1603SOL     OW 4835   1.458   4.459   4.452
 1603SOL    HW1 4836   1.453   4.394   4.527
 1603SOL    HW2 4837   1.538   4.518   4.465
 1604SOL     OW 4838   1.111   5.500   3.961
 1604SOL    HW1 4839   1.051   5.438   4.011
 1604SOL    HW2 4840   1.142   5.456   3.876
 1605SOL     OW 4841   1.632   5.101   3.805
 1605SOL    HW1 4842   1.600   5.195   3.795
 1605SOL    HW2 4843   1.556   5.038   3.793
 1606SOL     OW 4844   1.400   3.831   4.150
 1606SOL    HW1 4845   1.376   3.794   4.060
 1606SOL    HW2 4846   1.499   3.847   4.154
 1607SOL     OW 4847   0.382   4.424   4.204
 1607SOL    HW1 4848   0.427   4.334   4.201
 1607SOL    HW2 4849   0.288   4.413   4.237
 1608SOL     OW 4850   0.614   3.846   3.841
 1608SOL    HW1 4851   0.712   3.824   3.848
 1608SOL    HW2 4852   0.583   3.829   3.748
 1609SOL     OW 4853   0.803   5.126   4.648
 1609SOL    HW1 4854   0.893   5.140   4.606
 1609SOL    HW2 4855   0.732   5.128   4.577
 1610SOL     OW 4856   0.922   4.227   4.623
 1610SOL    HW1 4857   0.897   4.218   4.527
 1610SOL    HW2 4858   0.970   4.145   4.654
 1611SOL     OW 4859   0.539   3.788   4.236
 1611SOL    HW1 4860   0.458   3.789   4.294
 1611SOL    HW2 4861   0.542   3.871   4.181
 1612SOL     OW 4862   1.434   4.912   3.765
 1612SOL    HW1 4863   1.466   4.836   3.822
 1612SOL    HW2 4864   1.342   4.939   3.795
 1613SOL     OW 4865   0.297   3.759   3.895
 1613SOL    HW1 4866   0.346   3.843   3.874
 1613SOL    HW2 4867   0.359   3.694   3.940
 1614SOL     OW 4868   0.935   3.960   4.204
 1614SOL    HW1 4869   0.887   4.001   4.126
 1614SOL    HW2 4870   1.034   3.958   4.185
 1615SOL     OW 4871   1.227   5.294   4.517
 1615SOL    HW1 4872   1.248   5.368   4.452
 1615SOL    HW2 4873   1.295   5.294   4.590
 1616SOL     OW 4874   0.459   4.876   4.465
 1616SOL    HW1 4875   0.388   4.849   4.530
 1616SOL    HW2 4876   0.433   4.848   4.372
 1617SOL     OW 4877   1.032   4.273   3.740
 1617SOL    HW1 4878   0.991   4.355   3.701
 1617SOL    HW2 4879   1.096   4.299   3.813
 1618SOL     OW 4880   0.078   4.280   5.110
 1618SOL    HW1 4881   0.170   4.279   5.069
 1618SOL    HW2 4882   0.072   4.354   5.177
 1619SOL     OW 4883   0.561   3.946   4.871
 1619SOL    HW1 4884   0.599   3.862   4.908
 1619SOL    HW2 4885   0.473   3.965   4.915
 1620SOL     OW 4886   0.866   4.178   4.366
 1620SOL    HW1 4887   0.834   4.250   4.304
 1620SOL    HW2 4888   0.890   4.097   4.313
 1621SOL     OW 4889   1.017   3.763   4.477
 1621SOL    HW1 4890   0.945   3.768   4.408
 1621SOL    HW2 4891   0.993   3.694   4.546
 1622SOL     OW 4892   1.429   4.897   4.591
 1622SOL    HW1 4893   1.374   4.813   4.584
 1622SOL    HW2 4894   1.455   4.926   4.499
 1623SOL     OW 4895   1.466   4.314   4.716
 1623SOL    HW1 4896   1.436   4.219   4.723
 1623SOL    HW2 4897   1.539   4.330   4.782
 1624SOL     OW 4898   1.857   4.557   4.101
 1624SOL    HW1 4899   1.899   4.493   4.165
 1624SOL    HW2 4900   1.819   4.506   4.023
 1625SOL     OW 4901   0.488   5.109   3.898
 1625SOL    HW1 4902   0.401   5.094   3.945
 1625SOL    HW2 4903   0.471   5.135   3.803
 1626SOL     OW 4904   1.664   5.004   4.381
 1626SOL    HW1 4905   1.763   5.012   4.395
 1626SOL    HW2 4906   1.619   5.088   4.412
 1627SOL     OW 4907   1.390   4.299   3.802
 1627SOL    HW1 4908   1.336   4.278   3.883
 1627SOL    HW2 4909   1.481   4.258   3.811
 1628SOL     OW 4910   0.527   3.980   4.052
 1628SOL    HW1 4911   0.554   3.921   3.977
 1628SOL    HW2 4912   0.527   4.075   4.021
 1629SOL     OW 4913   1.064   5.071   5.064
 1629SOL    HW1 4914   0.984   5.048   5.119
 1629SOL    HW2 4915   1.147   5.045   5.113
 1630SOL     OW 4916   1.111   4.919   4.824
 1630SOL    HW1 4917   1.071   4.963   4.905
 1630SOL    HW2 4918   1.070   4.956   4.741
 1631SOL     OW 4919   1.638   4.823   4.803
 1631SOL    HW1 4920   1.643   4.904   4.862
 1631SOL    HW2 4921   1.552   4.825   4.752
 1632SOL     OW 4922   0.915   3.813   5.126
 1632SOL    HW1 4923   0.940   3.793   5.031
 1632SOL    HW2 4924   0.987   3.869   5.168
 1633SOL     OW 4925   0.705   4.774   4.092
 1633SOL    HW1 4926   0.691   4.781   4.191
 1633SOL    HW2 4927   0.789   4.723   4.074
 1634SOL     OW 4928   0.410   4.537   4.975
 1634SOL    HW1 4929   0.496   4.549   5.025
 1634SOL    HW2 4930   0.368   4.450   5.002
 1635SOL     OW 4931   1.274   4.110   4.986
 1635SOL    HW1 4932   1.295   4.184   5.050
 1635SOL    HW2 4933   1.185   4.127   4.943
 1636SOL     OW 4934   0.064   5.288   5.055
 1636SOL    HW1 4935   0.018   5.370   5.021
 1636SOL    HW2 4936   0.162   5.307   5.064
 1637SOL     OW 4937   0.367   4.824   4.225
 1637SOL    HW1 4938   0.360   4.907   4.169
 1637SOL    HW2 4939   0.371   4.744   4.165
 1638SOL     OW 4940   0.566   4.261   4.589
 1638SOL    HW1 4941   0.578   4.327   4.515
 1638SOL    HW2 4942   0.612   4.295   4.672
 1639SOL     OW 4943   1.252   5.072   4.112
 1639SOL    HW1 4944   1.302   5.149   4.152
 1639SOL    HW2 4945   1.157   5.074   4.144
 1640SOL     OW 4946   1.272   5.169   4.866
 1640SOL    HW1 4947   1.319   5.182   4.953
 1640SOL    HW2 4948   1.206   5.095   4.875
 1641SOL     OW 4949   1.582   4.363   4.196
 1641SOL    HW1 4950   1.551   4.424   4.269
 1641SOL    HW2 4951   1.632   4.415   4.127
 1642SOL     OW 4952   0.354   5.234   5.053
 1642SOL    HW1 4953   0.333   5.190   4.966
 1642SOL    HW2 4954   0.451   5.260   5.056
 1643SOL     OW 4955   0.402   4.475   5.322
 1643SOL    HW1 4956   0.470   4.530   5.275
 1643SOL    HW2 4957   0.442   4.387   5.349
 1644SOL     OW 4958   1.587   4.503   5.394
 1644SOL    HW1 4959   1.495   4.541   5.389
 1644SOL    HW2 4960   1.647   4.550   5.329
 1645SOL     OW 4961   0.573   4.594   4.753
 1645SOL    HW1 4962   0.617   4.683   4.744
 1645SOL    HW2 4963   0.510   4.594   4.830
 1646SOL     OW 4964   1.360   4.586   4.769
 1646SOL    HW1 4965   1.285   4.586   4.703
 1646SOL    HW2 4966   1.397   4.494   4.778
 1647SOL     OW 4967   1.209   4.249   3.999
 1647SOL    HW1 4968   1.222   4.165   4.053
 1647SOL    HW2 4969   1.180   4.323   4.059
 1648SOL     OW 4970   0.307   3.937   4.955
 1648SOL    HW1 4971   0.284   3.974   5.045
 1648SOL    HW2 4972   0.277   3.842   4.949
 1649SOL     OW 4973   0.037   5.034   5.006
 1649SOL    HW1 4974   0.090   4.985   5.074
 1649SOL    HW2 4975   0.059   5.132   5.011
 1650SOL     OW 4976   0.732   4.358   4.788
 1650SOL    HW1 4977   0.791   4.332   4.712
 1650SOL    HW2 4978   0.704   4.454   4.777
 1651SOL     OW 4979   0.307   3.787   4.342
 1651SOL    HW1 4980   0.296   3.881   4.375
 1651SOL    HW2 4981   0.302   3.724   4.419
 1652SOL     OW 4982   1.622   4.091   4.098
 1652SOL    HW1 4983   1.624   4.015   4.162
 1652SOL    HW2 4984   1.574   4.168   4.138
 1653SOL     OW 4985   1.023   4.490   4.690
 1653SOL    HW1 4986   1.038   4.511   4.786
 1653SOL    HW2 4987   0.993   4.395   4.681
 1654SOL     OW 4988   1.540   3.998   3.849
 1654SOL    HW1 4989   1.479   3.923   3.872
 1654SOL    HW2 4990   1.562   4.050   3.932
 1655SOL     OW 4991   1.303   4.562   3.766
 1655SOL    HW1 4992   1.337   4.469   3.781
 1655SOL    HW2 4993   1.321   4.589   3.671
 1656SOL     OW 4994   1.068   5.057   4.573
 1656SOL    HW1 4995   1.075   4.973   4.518
 1656SOL    HW2 4996   1.130   5.126   4.537
 1657SOL     OW 4997   0.319   4.534   4.673
 1657SOL    HW1 4998   0.412   4.570   4.678
 1657SOL    HW2 4999   0.313   4.449   4.725
 1658SOL     OW 5000   0.339   4.233   4.730
 1658SOL    HW1 5001   0.287   4.150   4.713
 1658SOL    HW2 5002   0.416   4.238   4.666
 1659SOL     OW 5003   1.138   4.104   5.402
 1659SOL    HW1 5004   1.093   4.167   5.466
 1659SOL    HW2 5005   1.231   4.135   5.385
 1660SOL     OW 5006   1.160   3.931   5.201
 1660SOL    HW1 5007   1.160   3.995   5.278
 1660SOL    HW2 5008   1.188   3.979   5.118
 1661SOL     OW 5009   0.008   5.050   3.924
 1661SOL    HW1 5010  -0.085   5.071   3.893
 1661SOL    HW2 5011   0.018   4.951   3.937
 1662SOL     OW 5012   1.002   4.520   4.962
 1662SOL    HW1 5013   1.043   4.488   5.048
 1662SOL    HW2 5014   0.906   4.493   4.959
 1663SOL     OW 5015   0.040   4.268   4.838
 1663SOL    HW1 5016   0.125   4.235   4.797
 1663SOL    HW2 5017   0.053   4.283   4.936
 1664SOL     OW 5018   0.815   4.296   4.049
 1664SOL    HW1 5019   0.822   4.207   4.003
 1664SOL    HW2 5020   0.721   4.330   4.041
 1665SOL     OW 5021   1.657   4.328   4.930
 1665SOL    HW1 5022   1.619   4.259   4.992
 1665SOL    HW2 5023   1.739   4.292   4.886
 1666SOL     OW 5024   0.671   4.188   4.993
 1666SOL    HW1 5025   0.637   4.099   4.963
 1666SOL    HW2 5026   0.697   4.242   4.913
 1667SOL     OW 5027   0.473   4.224   3.915
 1667SOL    HW1 5028   0.534   4.304   3.919
 1667SOL    HW2 5029   0.378   4.255   3.922
 1668SOL     OW 5030   0.159   4.861   5.190
 1668SOL    HW1 5031   0.181   4.800   5.266
 1668SOL    HW2 5032   0.169   4.812   5.104
 1669SOL     OW 5033   1.347   4.783   4.958
 1669SOL    HW1 5034   1.371   4.720   4.884
 1669SOL    HW2 5035   1.257   4.823   4.940
 1670SOL     OW 5036   1.302   4.579   4.033
 1670SOL    HW1 5037   1.216   4.548   4.075
 1670SOL    HW2 5038   1.298   4.565   3.934
 1671SOL     OW 5039   0.083   4.982   4.746
 1671SOL    HW1 5040   0.078   4.981   4.846
 1671SOL    HW2 5041   0.000   4.941   4.708
 1672SOL     OW 5042   1.726   3.859   4.247
 1672SOL    HW1 5043   1.799   3.842   4.180
 1672SOL    HW2 5044   1.695   3.772   4.285
 1673SOL     OW 5045   1.280   4.651   4.396
 1673SOL    HW1 5046   1.340   4.570   4.398
 1673SOL    HW2 5047   1.320   4.720   4.336
 1674SOL     OW 5048   1.841   3.899   4.687
 1674SOL    HW1 5049   1.880   3.814   4.651
 1674SOL    HW2 5050   1.743   3.901   4.668
 1675SOL     OW 5051   0.263   4.050   4.444
 1675SOL    HW1 5052   0.184   4.101   4.410
 1675SOL    HW2 5053   0.254   4.035   4.542
 1676SOL     OW 5054   0.822   4.726   5.096
 1676SOL    HW1 5055   0.862   4.725   5.004
 1676SOL    HW2 5056   0.832   4.818   5.136
 1677SOL     OW 5057   0.916   4.634   4.015
 1677SOL    HW1 5058   0.979   4.672   3.947
 1677SOL    HW2 5059   0.956   4.551   4.054
 1678SOL     OW 5060   0.372   5.012   5.214
 1678SOL    HW1 5061   0.359   5.105   5.180
 1678SOL    HW2 5062   0.288   4.960   5.201
 1679SOL     OW 5063   1.614   5.016   5.013
 1679SOL    HW1 5064   1.674   5.019   5.093
 1679SOL    HW2 5065   1.539   5.080   5.026
 1680SOL     OW 5066   1.039   4.822   4.420
 1680SOL    HW1 5067   0.969   4.775   4.474
 1680SOL    HW2 5068   1.098   4.754   4.377
 1681SOL     OW 5069   1.014   3.960   4.695
 1681SOL    HW1 5070   1.006   3.924   4.602
 1681SOL    HW2 5071   1.012   3.884   4.760
 1682SOL     OW 5072   1.709   4.109   5.105
 1682SOL    HW1 5073   1.782   4.178   5.109
 1682SOL    HW2 5074   1.737   4.034   5.046
 1683SOL     OW 5075   0.255   5.072   4.014
 1683SOL    HW1 5076   0.159   5.073   3.987
 1683SOL    HW2 5077   0.267   5.125   4.098
 1684SOL     OW 5078   0.075   4.069   3.757
 1684SOL    HW1 5079  -0.017   4.041   3.728
 1684SOL    HW2 5080   0.106   4.146   3.701
 1685SOL     OW 5081   1.440   4.580   5.122
 1685SOL    HW1 5082   1.383   4.632   5.059
 1685SOL    HW2 5083   1.536   4.592   5.098
 1686SOL     OW 5084   0.072   3.890   4.042
 1686SOL    HW1 5085   0.055   3.973   3.988
 1686SOL    HW2 5086   0.162   3.853   4.020
 1687SOL     OW 5087   1.183   5.059   3.843
 1687SOL    HW1 5088   1.084   5.048   3.845
 1687SOL    HW2 5089   1.217   5.074   3.936
 1688SOL     OW 5090   0.613   4.566   5.155
 1688SOL    HW1 5091   0.669   4.647   5.138
 1688SOL    HW2 5092   0.672   4.486   5.158
 1689SOL     OW 5093   1.674   4.607   4.978
 1689SOL    HW1 5094   1.647   4.518   4.941
 1689SOL    HW2 5095   1.675   4.675   4.905
 1690SOL     OW 5096   1.225   4.049   4.173
 1690SOL    HW1 5097   1.290   3.975   4.162
 1690SOL    HW2 5098   1.245   4.099   4.257
 1691SOL     OW 5099   0.594   4.469   4.376
 1691SOL    HW1 5100   0.644   4.554   4.357
 1691SOL    HW2 5101   0.506   4.471   4.328
 1692SOL     OW 5102   1.777   4.066   5.366
 1692SOL    HW1 5103   1.760   4.097   5.272
 1692SOL    HW2 5104   1.693   4.029   5.404
 1693SOL     OW 5105   1.730   4.658   5.241
 1693SOL    HW1 5106   1.768   4.749   5.256
 1693SOL    HW2 5107   1.722   4.641   5.142
 1694SOL     OW 5108   0.859   5.098   3.740
 1694SOL    HW1 5109   0.813   5.113   3.828
 1694SOL    HW2 5110   0.903   5.183   3.710
 1695SOL     OW 5111   0.859   4.680   4.585
 1695SOL    HW1 5112   0.913   4.611   4.633
 1695SOL    HW2 5113   0.827   4.749   4.651
 1696SOL     OW 5114   1.083   4.708   3.811
 1696SOL    HW1 5115   1.060   4.761   3.729
 1696SOL    HW2 5116   1.164   4.652   3.792
 1697SOL     OW 5117   0.079   4.964   4.377
 1697SOL    HW1 5118   0.078   4.917   4.465
 1697SOL    HW2 5119   0.161   4.936   4.326
 1698SOL     OW 5120   1.824   3.916   4.951
 1698SOL    HW1 5121   1.820   3.826   4.995
 1698SOL    HW2 5122   1.827   3.905   4.852
 1699SOL     OW 5123   0.428   4.148   4.244
 1699SOL    HW1 5124   0.458   4.076   4.182
 1699SOL    HW2 5125   0.389   4.108   4.327
 1700SOL     OW 5126   1.705   5.211   4.828
 1700SOL    HW1 5127   1.612   5.186   4.801
 1700SOL    HW2 5128   1.731   5.161   4.910
 1701SOL     OW 5129   0.317   4.271   5.004
 1701SOL    HW1 5130   0.355   4.212   5.076
 1701SOL    HW2 5131   0.357   4.245   4.916
 1702SOL     OW 5132   1.424   3.938   4.836
 1702SOL    HW1 5133   1.476   3.873   4.891
 1702SOL    HW2 5134   1.375   4.001   4.897
 1703SOL     OW 5135   1.001   3.758   4.878
 1703SOL    HW1 5136   0.938   3.686   4.847
 1703SOL    HW2 5137   1.094   3.722   4.878
 1704SOL     OW 5138   0.770   5.054   4.025
 1704SOL    HW1 5139   0.724   4.967   4.042
 1704SOL    HW2 5140   0.861   5.051   4.066
 1705SOL     OW 5141   0.618   5.291   5.008
 1705SOL    HW1 5142   0.613   5.373   5.065
 1705SOL    HW2 5143   0.707   5.288   4.963
 1706SOL     OW 5144   1.352   3.776   3.892
 1706SOL    HW1 5145   1.387   3.735   3.808
 1706SOL    HW2 5146   1.262   3.738   3.912
 1707SOL     OW 5147   1.300   4.177   4.415
 1707SOL    HW1 5148   1.241   4.257   4.419
 1707SOL    HW2 5149   1.315   4.142   4.508
 1708SOL     OW 5150   1.593   3.945   4.606
 1708SOL    HW1 5151   1.509   3.944   4.660
 1708SOL    HW2 5152   1.595   4.028   4.550
 1709SOL     OW 5153   0.039   4.801   4.024
 1709SOL    HW1 5154   0.138   4.790   4.015
 1709SOL    HW2 5155  -0.001   4.715   4.056
 1710SOL     OW 5156   2.092   0.628   0.113
 1710SOL    HW1 5157   1.999   0.626   0.150
 1710SOL    HW2 5158   2.093   0.589   0.021
 1711SOL     OW 5159   2.087   0.275   0.996
 1711SOL    HW1 5160   2.122   0.258   1.088
 1711SOL    HW2 5161   1.999   0.230   0.984
 1712SOL     OW 5162   1.881   0.368   0.647
 1712SOL    HW1 5163   1.799   0.411   0.686
 1712SOL    HW2 5164   1.853   0.295   0.584
 1713SOL     OW 5165   2.431   1.275   1.165
 1713SOL    HW1 5166   2.338   1.268   1.128
 1713SOL    HW2 5167   2.442   1.364   1.209
 1714SOL     OW 5168   3.417   1.511   0.703
 1714SOL    HW1 5169   3.360   1.495   0.784
 1714SOL    HW2 5170   3.358   1.521   0.623
 1715SOL     OW 5171   2.997   0.703   0.717
 1715SOL    HW1 5172   3.054   0.781   0.692
 1715SOL    HW2 5173   2.937   0.729   0.793
 1716SOL     OW 5174   3.617   0.607   0.231
 1716SOL    HW1 5175   3.605   0.594   0.132
 1716SOL    HW2 5176   3.587   0.526   0.280
 1717SOL     OW 5177   2.630   1.144   1.023
 1717SOL    HW1 5178   2.552   1.161   1.083
 1717SOL    HW2 5179   2.664   1.231   0.987
 1718SOL     OW 5180   2.712   0.798   1.823
 1718SOL    HW1 5181   2.708   0.874   1.888
 1718SOL    HW2 5182   2.734   0.834   1.732
 1719SOL     OW 5183   2.547   1.012   0.665
 1719SOL    HW1 5184   2.616   0.996   0.735
 1719SOL    HW2 5185   2.474   1.069   0.703
 1720SOL     OW 5186   2.548   1.161   1.803
 1720SOL    HW1 5187   2.608   1.240   1.817
 1720SOL    HW2 5188   2.462   1.192   1.762
 1721SOL     OW 5189   2.197   1.435   1.061
 1721SOL    HW1 5190   2.119   1.404   1.008
 1721SOL    HW2 5191   2.255   1.493   1.004
 1722SOL     OW 5192   3.322   1.505   1.339
 1722SOL    HW1 5193   3.346   1.599   1.365
 1722SOL    HW2 5194   3.306   1.451   1.421
 1723SOL     OW 5195   2.300   0.392   1.499
 1723SOL    HW1 5196   2.382   0.336   1.508
 1723SOL    HW2 5197   2.219   0.334   1.503
 1724SOL     OW 5198   3.465   0.447   0.737
 1724SOL    HW1 5199   3.391   0.493   0.687
 1724SOL    HW2 5200   3.516   0.515   0.790
 1725SOL     OW 5201   2.093   1.713   0.483
 1725SOL    HW1 5202   2.127   1.790   0.537
 1725SOL    HW2 5203   2.137   1.713   0.393
 1726SOL     OW 5204   2.989   1.341   1.690
 1726SOL    HW1 5205   3.036   1.341   1.778
 1726SOL    HW2 5206   2.941   1.254   1.679
 1727SOL     OW 5207   2.092   1.434   0.538
 1727SOL    HW1 5208   2.066   1.530   0.538
 1727SOL    HW2 5209   2.021   1.380   0.583
 1728SOL     OW 5210   2.102   1.091   0.886
 1728SOL    HW1 5211   2.116   1.007   0.938
 1728SOL    HW2 5212   2.047   1.155   0.941
 1729SOL     OW 5213   2.482   1.786   1.439
 1729SOL    HW1 5214   2.390   1.769   1.474
 1729SOL    HW2 5215   2.510   1.878   1.465
 1730SOL     OW 5216   2.468   0.964   0.123
 1730SOL    HW1 5217   2.475   1.048   0.069
 1730SOL    HW2 5218   2.514   0.977   0.211
 1731SOL     OW 5219   3.456   0.114   1.480
 1731SOL    HW1 5220   3.438   0.181   1.408
 1731SOL    HW2 5221   3.453   0.160   1.569
 1732SOL     OW 5222   1.984   0.643   0.563
 1732SOL    HW1 5223   1.939   0.555   0.580
 1732SOL    HW2 5224   1.983   0.697   0.647
 1733SOL     OW 5225   3.704   1.767   0.359
 1733SOL    HW1 5226   3.758   1.738   0.439
 1733SOL    HW2 5227   3.734   1.857   0.330
 1734SOL     OW 5228   1.889   1.596   0.117
 1734SOL    HW1 5229   1.870   1.500   0.138
 1734SOL    HW2 5230   1.856   1.654   0.192
 1735SOL     OW 5231   3.551   0.922   0.612
 1735SOL    HW1 5232   3.646   0.893   0.620
 1735SOL    HW2 5233   3.543   0.987   0.537
 1736SOL     OW 5234   3.503   1.108   0.432
 1736SOL    HW1 5235   3.589   1.110   0.380
 1736SOL    HW2 5236   3.517   1.155   0.520
 1737SOL     OW 5237   1.975   0.737   1.597
 1737SOL    HW1 5238   2.063   0.724   1.642
 1737SOL    HW2 5239   1.962   0.834   1.575
 1738SOL     OW 5240   2.475   1.365   0.726
 1738SOL    HW1 5241   2.426   1.278   0.735
 1738SOL    HW2 5242   2.452   1.408   0.639
 1739SOL     OW 5243   3.155   1.228   1.423
 1739SOL    HW1 5244   3.192   1.155   1.365
 1739SOL    HW2 5245   3.207   1.233   1.508
 1740SOL     OW 5246   2.671   0.004   0.502
 1740SOL    HW1 5247   2.711   0.095   0.493
 1740SOL    HW2 5248   2.571   0.012   0.508
 1741SOL     OW 5249   2.059   0.976   1.264
 1741SOL    HW1 5250   2.148   0.931   1.250
 1741SOL    HW2 5251   1.986   0.911   1.245
 1742SOL     OW 5252   3.387   0.999   0.190
 1742SOL    HW1 5253   3.324   0.923   0.203
 1742SOL    HW2 5254   3.435   1.017   0.276
 1743SOL     OW 5255   3.049   1.792   1.616
 1743SOL    HW1 5256   3.073   1.852   1.540
 1743SOL    HW2 5257   3.056   1.697   1.586
 1744SOL     OW 5258   2.179   0.251   1.801
 1744SOL    HW1 5259   2.250   0.322   1.807
 1744SOL    HW2 5260   2.091   0.290   1.829
 1745SOL     OW 5261   3.328   1.417   0.953
 1745SOL    HW1 5262   3.269   1.423   1.033
 1745SOL    HW2 5263   3.313   1.329   0.907
 1746SOL     OW 5264   3.529   1.714   0.572
 1746SOL    HW1 5265   3.488   1.691   0.484
 1746SOL    HW2 5266   3.511   1.640   0.637
 1747SOL     OW 5267   2.460   0.729   0.270
 1747SOL    HW1 5268   2.484   0.798   0.202
 1747SOL    HW2 5269   2.382   0.762   0.324
 1748SOL     OW 5270   3.143   0.345   0.944
 1748SOL    HW1 5271   3.057   0.295   0.931
 1748SOL    HW2 5272   3.205   0.291   1.000
 1749SOL     OW 5273   3.438   1.662   0.307
 1749SOL    HW1 5274   3.527   1.708   0.310
 1749SOL    HW2 5275   3.417   1.638   0.212
 1750SOL     OW 5276   2.669   0.605   1.465
 1750SOL    HW1 5277   2.622   0.602   1.554
 1750SOL    HW2 5278   2.618   0.550   1.399
 1751SOL     OW 5279   3.256   0.469   1.674
 1751SOL    HW1 5280   3.236   0.512   1.762
 1751SOL    HW2 5281   3.334   0.407   1.683
 1752SOL     OW 5282   2.835   0.890   1.572
 1752SOL    HW1 5283   2.881   0.806   1.543
 1752SOL    HW2 5284   2.779   0.924   1.497
 1753SOL     OW 5285   2.853   0.410   1.242
 1753SOL    HW1 5286   2.776   0.444   1.296
 1753SOL    HW2 5287   2.819   0.359   1.163
 1754SOL     OW 5288   2.903   0.701   0.429
 1754SOL    HW1 5289   2.929   0.697   0.525
 1754SOL    HW2 5290   2.818   0.650   0.415
 1755SOL     OW 5291   1.938   0.811   0.789
 1755SOL    HW1 5292   2.037   0.799   0.798
 1755SOL    HW2 5293   1.914   0.906   0.810
 1756SOL     OW 5294   1.992   1.821   1.571
 1756SOL    HW1 5295   1.982   1.806   1.670
 1756SOL    HW2 5296   1.906   1.857   1.535
 1757SOL     OW 5297   2.727   0.348   0.195
 1757SOL    HW1 5298   2.786   0.411   0.146
 1757SOL    HW2 5299   2.746   0.254   0.166
 1758SOL     OW 5300   3.581   0.585   1.831
 1758SOL    HW1 5301   3.555   0.674   1.795
 1758SOL    HW2 5302   3.579   0.517   1.758
 1759SOL     OW 5303   3.224   1.144   0.545
 1759SOL    HW1 5304   3.307   1.115   0.497
 1759SOL    HW2 5305   3.175   1.211   0.489
 1760SOL     OW 5306   2.412   0.196   0.885
 1760SOL    HW1 5307   2.407   0.191   0.985
 1760SOL    HW2 5308   2.414   0.292   0.856
 1761SOL     OW 5309   2.870   1.456   0.477
 1761SOL    HW1 5310   2.824   1.528   0.425
 1761SOL    HW2 5311   2.866   1.476   0.575
 1762SOL     OW 5312   2.213   1.801   0.853
 1762SOL    HW1 5313   2.263   1.715   0.859
 1762SOL    HW2 5314   2.278   1.878   0.850
 1763SOL     OW 5315   3.657   1.066   0.873
 1763SOL    HW1 5316   3.595   1.051   0.797
 1763SOL    HW2 5317   3.605   1.077   0.958
 1764SOL     OW 5318   3.089   1.550   1.506
 1764SOL    HW1 5319   3.095   1.473   1.570
 1764SOL    HW2 5320   3.037   1.524   1.426
 1765SOL     OW 5321   2.183   0.943   0.242
 1765SOL    HW1 5322   2.265   0.982   0.200
 1765SOL    HW2 5323   2.156   0.861   0.193
 1766SOL     OW 5324   3.320   0.735   0.728
 1766SOL    HW1 5325   3.315   0.670   0.803
 1766SOL    HW2 5326   3.400   0.794   0.741
 1767SOL     OW 5327   2.323   1.266   1.727
 1767SOL    HW1 5328   2.273   1.267   1.641
 1767SOL    HW2 5329   2.260   1.248   1.803
 1768SOL     OW 5330   2.973   1.776   0.237
 1768SOL    HW1 5331   2.913   1.714   0.287
 1768SOL    HW2 5332   3.004   1.732   0.152
 1769SOL     OW 5333   2.064   0.285   1.498
 1769SOL    HW1 5334   1.984   0.345   1.485
 1769SOL    HW2 5335   2.054   0.236   1.584
 1770SOL     OW 5336   3.494   1.377   0.081
 1770SOL    HW1 5337   3.462   1.471   0.071
 1770SOL    HW2 5338   3.418   1.314   0.069
 1771SOL     OW 5339   2.326   1.743   0.323
 1771SOL    HW1 5340   2.359   1.782   0.409
 1771SOL    HW2 5341   2.402   1.736   0.258
 1772SOL     OW 5342   3.262   0.107   0.426
 1772SOL    HW1 5343   3.238   0.070   0.336
 1772SOL    HW2 5344   3.361   0.123   0.430
 1773SOL     OW 5345   2.111   1.785   1.241
 1773SOL    HW1 5346   2.168   1.720   1.291
 1773SOL    HW2 5347   2.095   1.752   1.148
 1774SOL     OW 5348   2.802   1.698   0.904
 1774SOL    HW1 5349   2.882   1.641   0.925
 1774SOL    HW2 5350   2.753   1.658   0.827
 1775SOL     OW 5351   2.244   0.700   0.480
 1775SOL    HW1 5352   2.289   0.610   0.477
 1775SOL    HW2 5353   2.150   0.689   0.513
 1776SOL     OW 5354   3.409   0.222   1.729
 1776SOL    HW1 5355   3.404   0.259   1.821
 1776SOL    HW2 5356   3.337   0.153   1.717
 1777SOL     OW 5357   2.476   0.122   0.117
 1777SOL    HW1 5358   2.574   0.100   0.124
 1777SOL    HW2 5359   2.445   0.105   0.024
 1778SOL     OW 5360   2.643   0.264   1.749
 1778SOL    HW1 5361   2.710   0.203   1.792
 1778SOL    HW2 5362   2.570   0.283   1.814
 1779SOL     OW 5363   2.750   1.514   1.195
 1779SOL    HW1 5364   2.727   1.489   1.101
 1779SOL    HW2 5365   2.811   1.445   1.234
 1780SOL     OW 5366   3.213   0.590   1.433
 1780SOL    HW1 5367   3.241   0.547   1.518
 1780SOL    HW2 5368   3.238   0.686   1.434
 1781SOL     OW 5369   2.665   1.402   0.924
 1781SOL    HW1 5370   2.755   1.416   0.882
 1781SOL    HW2 5371   2.594   1.404   0.853
 1782SOL     OW 5372   2.784   0.503   0.899
 1782SOL    HW1 5373   2.759   0.494   0.803
 1782SOL    HW2 5374   2.832   0.421   0.930
 1783SOL     OW 5375   2.401   0.064   0.512
 1783SOL    HW1 5376   2.320   0.065   0.570
 1783SOL    HW2 5377   2.404   0.147   0.457
 1784SOL     OW 5378   3.296   1.188   0.041
 1784SOL    HW1 5379   3.328   1.112   0.098
 1784SOL    HW2 5380   3.204   1.215   0.071
 1785SOL     OW 5381   2.159   0.035   0.171
 1785SOL    HW1 5382   2.208   0.119   0.150
 1785SOL    HW2 5383   2.221  -0.030   0.216
 1786SOL     OW 5384   2.797   0.236   0.480
 1786SOL    HW1 5385   2.749   0.277   0.402
 1786SOL    HW2 5386   2.896   0.234   0.461
 1787SOL     OW 5387   2.938   0.683   1.464
 1787SOL    HW1 5388   2.858   0.622   1.467
 1787SOL    HW2 5389   3.019   0.630   1.440
 1788SOL     OW 5390   3.089   1.570   0.793
 1788SOL    HW1 5391   3.110   1.644   0.728
 1788SOL    HW2 5392   3.157   1.570   0.866
 1789SOL     OW 5393   2.321   1.152   0.741
 1789SOL    HW1 5394   2.250   1.125   0.806
 1789SOL    HW2 5395   2.295   1.124   0.648
 1790SOL     OW 5396   3.133   1.797   0.591
 1790SOL    HW1 5397   3.177   1.861   0.527
 1790SOL    HW2 5398   3.083   1.849   0.661
 1791SOL     OW 5399   2.894   0.549   0.016
 1791SOL    HW1 5400   2.853   0.631  -0.023
 1791SOL    HW2 5401   2.958   0.575   0.089
 1792SOL     OW 5402   1.940   0.556   1.386
 1792SOL    HW1 5403   2.032   0.555   1.345
 1792SOL    HW2 5404   1.934   0.630   1.453
 1793SOL     OW 5405   2.423   0.222   1.147
 1793SOL    HW1 5406   2.461   0.138   1.184
 1793SOL    HW2 5407   2.335   0.241   1.191
 1794SOL     OW 5408   2.728   0.454   0.642
 1794SOL    HW1 5409   2.696   0.526   0.580
 1794SOL    HW2 5410   2.752   0.373   0.589
 1795SOL     OW 5411   2.879   0.039   0.753
 1795SOL    HW1 5412   2.807   0.044   0.684
 1795SOL    HW2 5413   2.855  -0.030   0.822
 1796SOL     OW 5414   3.291   1.173   0.867
 1796SOL    HW1 5415   3.236   1.089   0.860
 1796SOL    HW2 5416   3.317   1.202   0.775
 1797SOL     OW 5417   3.328   0.590   0.992
 1797SOL    HW1 5418   3.298   0.495   0.999
 1797SOL    HW2 5419   3.401   0.606   1.058
 1798SOL     OW 5420   3.719   0.833   0.377
 1798SOL    HW1 5421   3.761   0.769   0.441
 1798SOL    HW2 5422   3.681   0.782   0.299
 1799SOL     OW 5423   2.350   1.385   0.174
 1799SOL    HW1 5424   2.263   1.370   0.221
 1799SOL    HW2 5425   2.333   1.411   0.079
 1800SOL     OW 5426   3.526   1.280   0.657
 1800SOL    HW1 5427   3.625   1.288   0.671
 1800SOL    HW2 5428   3.481   1.364   0.688
 1801SOL     OW 5429   3.252   0.575   0.078
 1801SOL    HW1 5430   3.198   0.554   0.159
 1801SOL    HW2 5431   3.343   0.534   0.087
 1802SOL     OW 5432   2.389   0.256   0.328
 1802SOL    HW1 5433   2.416   0.197   0.253
 1802SOL    HW2 5434   2.389   0.351   0.297
 1803SOL     OW 5435   3.616   1.223   1.588
 1803SOL    HW1 5436   3.707   1.184   1.575
 1803SOL    HW2 5437   3.624   1.319   1.612
 1804SOL     OW 5438   2.926   1.347   1.340
 1804SOL    HW1 5439   2.846   1.324   1.395
 1804SOL    HW2 5440   3.009   1.321   1.389
 1805SOL     OW 5441   3.454   1.629   1.625
 1805SOL    HW1 5442   3.481   1.663   1.535
 1805SOL    HW2 5443   3.533   1.591   1.671
 1806SOL     OW 5444   2.973   1.195   1.100
 1806SOL    HW1 5445   2.933   1.239   1.181
 1806SOL    HW2 5446   2.932   1.232   1.017
 1807SOL     OW 5447   3.500   1.099   1.079
 1807SOL    HW1 5448   3.505   1.180   1.138
 1807SOL    HW2 5449   3.414   1.101   1.028
 1808SOL     OW 5450   2.777   0.089   1.402
 1808SOL    HW1 5451   2.802   0.069   1.307
 1808SOL    HW2 5452   2.849   0.145   1.444
 1809SOL     OW 5453   2.842   1.116   1.719
 1809SOL    HW1 5454   2.743   1.122   1.729
 1809SOL    HW2 5455   2.865   1.036   1.663
 1810SOL     OW 5456   2.567   1.050   0.368
 1810SOL    HW1 5457   2.553   1.057   0.467
 1810SOL    HW2 5458   2.651   0.999   0.350
 1811SOL     OW 5459   2.272   0.813   1.251
 1811SOL    HW1 5460   2.358   0.825   1.301
 1811SOL    HW2 5461   2.230   0.726   1.278
 1812SOL     OW 5462   3.136   0.386   1.262
 1812SOL    HW1 5463   3.157   0.460   1.326
 1812SOL    HW2 5464   3.047   0.403   1.219
 1813SOL     OW 5465   1.926   1.564   1.331
 1813SOL    HW1 5466   1.880   1.646   1.297
 1813SOL    HW2 5467   2.024   1.583   1.340
 1814SOL     OW 5468   2.229   1.100   0.501
 1814SOL    HW1 5469   2.222   1.183   0.445
 1814SOL    HW2 5470   2.233   1.020   0.441
 1815SOL     OW 5471   2.428   0.537   0.865
 1815SOL    HW1 5472   2.440   0.603   0.791
 1815SOL    HW2 5473   2.474   0.571   0.948
 1816SOL     OW 5474   3.114   1.348   0.388
 1816SOL    HW1 5475   3.164   1.425   0.428
 1816SOL    HW2 5476   3.019   1.350   0.420
 1817SOL     OW 5477   3.134   1.445   1.142
 1817SOL    HW1 5478   3.181   1.458   1.229
 1817SOL    HW2 5479   3.068   1.371   1.151
 1818SOL     OW 5480   3.444   0.639   0.472
 1818SOL    HW1 5481   3.413   0.700   0.545
 1818SOL    HW2 5482   3.494   0.691   0.403
 1819SOL     OW 5483   2.216   1.510   1.329
 1819SOL    HW1 5484   2.195   1.466   1.242
 1819SOL    HW2 5485   2.313   1.536   1.332
 1820SOL     OW 5486   2.264   0.751   1.598
 1820SOL    HW1 5487   2.332   0.806   1.551
 1820SOL    HW2 5488   2.304   0.663   1.625
 1821SOL     OW 5489   3.449   0.779   1.670
 1821SOL    HW1 5490   3.357   0.817   1.665
 1821SOL    HW2 5491   3.509   0.826   1.605
 1822SOL     OW 5492   2.875   0.105   1.770
 1822SOL    HW1 5493   2.881   0.190   1.718
 1822SOL    HW2 5494   2.907   0.029   1.713
 1823SOL     OW 5495   2.366   0.050   1.740
 1823SOL    HW1 5496   2.324  -0.007   1.670
 1823SOL    HW2 5497   2.300   0.119   1.772
 1824SOL     OW 5498   2.435   0.870   1.029
 1824SOL    HW1 5499   2.479   0.959   1.020
 1824SOL    HW2 5500   2.372   0.870   1.106
 1825SOL     OW 5501   3.222   0.862   1.045
 1825SOL    HW1 5502   3.147   0.862   0.979
 1825SOL    HW2 5503   3.259   0.770   1.054
 1826SOL     OW 5504   3.071   0.525   0.275
 1826SOL    HW1 5505   3.084   0.441   0.329
 1826SOL    HW2 5506   3.042   0.599   0.335
 1827SOL     OW 5507   2.169   0.213   1.231
 1827SOL    HW1 5508   2.146   0.250   1.321
 1827SOL    HW2 5509   2.139   0.118   1.225
 1828SOL     OW 5510   1.899   1.310   1.282
 1828SOL    HW1 5511   1.952   1.261   1.350
 1828SOL    HW2 5512   1.921   1.408   1.287
 1829SOL     OW 5513   2.594   0.634   1.064
 1829SOL    HW1 5514   2.653   0.608   0.988
 1829SOL    HW2 5515   2.566   0.730   1.053
 1830SOL     OW 5516   3.590   0.935   1.854
 1830SOL    HW1 5517   3.544   0.928   1.765
 1830SOL    HW2 5518   3.528   0.979   1.920
 1831SOL     OW 5519   2.169   0.063   0.618
 1831SOL    HW1 5520   2.158   0.157   0.651
 1831SOL    HW2 5521   2.164   0.000   0.695
 1832SOL     OW 5522   3.484   0.367   0.374
 1832SOL    HW1 5523   3.486   0.291   0.438
 1832SOL    HW2 5524   3.436   0.444   0.414
 1833SOL     OW 5525   2.885   0.766   0.966
 1833SOL    HW1 5526   2.900   0.787   1.062
 1833SOL    HW2 5527   2.855   0.671   0.957
 1834SOL     OW 5528   2.842   1.573   1.700
 1834SOL    HW1 5529   2.822   1.617   1.612
 1834SOL    HW2 5530   2.881   1.482   1.684
 1835SOL     OW 5531   3.721   1.518   1.605
 1835SOL    HW1 5532   3.735   1.545   1.510
 1835SOL    HW2 5533   3.804   1.540   1.658
 1836SOL     OW 5534   2.212   0.898   1.804
 1836SOL    HW1 5535   2.288   0.942   1.852
 1836SOL    HW2 5536   2.247   0.851   1.722
 1837SOL     OW 5537   3.402   0.274   0.125
 1837SOL    HW1 5538   3.341   0.199   0.148
 1837SOL    HW2 5539   3.424   0.326   0.208
 1838SOL     OW 5540   3.165   0.838   0.042
 1838SOL    HW1 5541   3.199   0.745   0.057
 1838SOL    HW2 5542   3.183   0.865  -0.053
 1839SOL     OW 5543   2.930   1.333   0.849
 1839SOL    HW1 5544   2.937   1.249   0.794
 1839SOL    HW2 5545   2.992   1.402   0.813
 1840SOL     OW 5546   2.181   0.810   0.949
 1840SOL    HW1 5547   2.274   0.846   0.954
 1840SOL    HW2 5548   2.175   0.725   1.001
 1841SOL     OW 5549   2.201   0.509   1.006
 1841SOL    HW1 5550   2.149   0.426   0.989
 1841SOL    HW2 5551   2.278   0.514   0.942
 1842SOL     OW 5552   3.000   0.380   1.678
 1842SOL    HW1 5553   2.955   0.443   1.742
 1842SOL    HW2 5554   3.093   0.411   1.661
 1843SOL     OW 5555   3.022   0.207   1.477
 1843SOL    HW1 5556   3.022   0.271   1.554
 1843SOL    HW2 5557   3.050   0.255   1.394
 1844SOL     OW 5558   1.870   1.326   0.200
 1844SOL    HW1 5559   1.777   1.347   0.169
 1844SOL    HW2 5560   1.880   1.227   0.213
 1845SOL     OW 5561   1.950   1.801   0.927
 1845SOL    HW1 5562   1.908   1.715   0.900
 1845SOL    HW2 5563   2.044   1.804   0.893
 1846SOL     OW 5564   2.366   1.568   0.910
 1846SOL    HW1 5565   2.432   1.642   0.919
 1846SOL    HW2 5566   2.410   1.489   0.868
 1847SOL     OW 5567   2.864   0.796   1.238
 1847SOL    HW1 5568   2.905   0.764   1.324
 1847SOL    HW2 5569   2.768   0.769   1.235
 1848SOL     OW 5570   1.902   0.544   1.114
 1848SOL    HW1 5571   1.987   0.511   1.073
 1848SOL    HW2 5572   1.915   0.559   1.212
 1849SOL     OW 5573   2.051   0.520   1.722
 1849SOL    HW1 5574   2.110   0.480   1.652
 1849SOL    HW2 5575   1.993   0.591   1.681
 1850SOL     OW 5576   3.231   0.950   1.660
 1850SOL    HW1 5577   3.270   1.039   1.680
 1850SOL    HW2 5578   3.241   0.930   1.563
 1851SOL     OW 5579   2.677   0.572   0.325
 1851SOL    HW1 5580   2.684   0.483   0.279
 1851SOL    HW2 5581   2.583   0.606   0.317
 1852SOL     OW 5582   3.519   0.604   1.206
 1852SOL    HW1 5583   3.481   0.535   1.268
 1852SOL    HW2 5584   3.601   0.568   1.162
 1853SOL     OW 5585   2.114   1.564   1.744
 1853SOL    HW1 5586   2.084   1.621   1.820
 1853SOL    HW2 5587   2.107   1.467   1.770
 1854SOL     OW 5588   2.533   0.464   1.269
 1854SOL    HW1 5589   2.499   0.375   1.239
 1854SOL    HW2 5590   2.559   0.518   1.189
 1855SOL     OW 5591   2.792   1.678   1.465
 1855SOL    HW1 5592   2.768   1.660   1.370
 1855SOL    HW2 5593   2.822   1.772   1.475
 1856SOL     OW 5594   2.335   0.500   0.191
 1856SOL    HW1 5595   2.396   0.580   0.195
 1856SOL    HW2 5596   2.240   0.531   0.198
 1857SOL     OW 5597   2.021   1.137   1.466
 1857SOL    HW1 5598   2.043   1.076   1.542
 1857SOL    HW2 5599   2.031   1.088   1.380
 1858SOL     OW 5600   3.209   1.059   1.234
 1858SOL    HW1 5601   3.233   0.996   1.160
 1858SOL    HW2 5602   3.119   1.099   1.216
 1859SOL     OW 5603   3.164   0.855   0.309
 1859SOL    HW1 5604   3.078   0.824   0.351
 1859SOL    HW2 5605   3.160   0.841   0.210
 1860SOL     OW 5606   3.621   1.747   1.154
 1860SOL    HW1 5607   3.682   1.777   1.081
 1860SOL    HW2 5608   3.583   1.658   1.132
 1861SOL     OW 5609   3.114   1.731   1.128
 1861SOL    HW1 5610   3.198   1.736   1.074
 1861SOL    HW2 5611   3.091   1.635   1.146
 1862SOL     OW 5612   1.945   1.258   1.022
 1862SOL    HW1 5613   1.940   1.257   1.122
 1862SOL    HW2 5614   1.862   1.217   0.984
 1863SOL     OW 5615   2.550   1.662   1.716
 1863SOL    HW1 5616   2.494   1.743   1.725
 1863SOL    HW2 5617   2.602   1.666   1.630
 1864SOL     OW 5618   2.765   0.086   0.133
 1864SOL    HW1 5619   2.816   0.087   0.047
 1864SOL    HW2 5620   2.821   0.044   0.204
 1865SOL     OW 5621   3.588   0.135   0.523
 1865SOL    HW1 5622   3.661   0.118   0.456
 1865SOL    HW2 5623   3.557   0.048   0.561
 1866SOL     OW 5624   3.250   1.573   0.477
 1866SOL    HW1 5625   3.317   1.585   0.403
 1866SOL    HW2 5626   3.210   1.662   0.500
 1867SOL     OW 5627   1.992   1.794   1.851
 1867SOL    HW1 5628   1.951   1.720   1.904
 1867SOL    HW2 5629   2.056   1.845   1.909
 1868SOL     OW 5630   3.142   0.927   0.672
 1868SOL    HW1 5631   3.202   0.846   0.674
 1868SOL    HW2 5632   3.182   0.996   0.612
 1869SOL     OW 5633   2.692   1.273   1.422
 1869SOL    HW1 5634   2.687   1.306   1.517
 1869SOL    HW2 5635   2.606   1.292   1.376
 1870SOL     OW 5636   2.534   1.616   0.154
 1870SOL    HW1 5637   2.543   1.626   0.055
 1870SOL    HW2 5638   2.494   1.527   0.175
 1871SOL     OW 5639   3.512   1.720   1.394
 1871SOL    HW1 5640   3.565   1.730   1.310
 1871SOL    HW2 5641   3.485   1.810   1.428
 1872SOL     OW 5642   3.703   0.175   0.963
 1872SOL    HW1 5643   3.742   0.090   0.927
 1872SOL    HW2 5644   3.605   0.177   0.944
 1873SOL     OW 5645   2.125   0.326   0.720
 1873SOL    HW1 5646   2.046   0.377   0.686
 1873SOL    HW2 5647   2.116   0.311   0.818
 1874SOL     OW 5648   3.056   1.612   0.031
 1874SOL    HW1 5649   3.062   1.519   0.068
 1874SOL    HW2 5650   2.997   1.612  -0.049
 1875SOL     OW 5651   2.684   1.002   1.372
 1875SOL    HW1 5652   2.724   1.001   1.280
 1875SOL    HW2 5653   2.694   1.094   1.412
 1876SOL     OW 5654   2.778   0.910   0.291
 1876SOL    HW1 5655   2.841   0.948   0.223
 1876SOL    HW2 5656   2.818   0.827   0.330
 1877SOL     OW 5657   3.366   1.607   0.044
 1877SOL    HW1 5658   3.274   1.644   0.051
 1877SOL    HW2 5659   3.404   1.627  -0.046
 1878SOL     OW 5660   2.234   1.288   1.490
 1878SOL    HW1 5661   2.221   1.381   1.456
 1878SOL    HW2 5662   2.150   1.236   1.477
 1879SOL     OW 5663   3.476   1.292   1.289
 1879SOL    HW1 5664   3.536   1.295   1.369
 1879SOL    HW2 5665   3.401   1.356   1.302
 1880SOL     OW 5666   2.901   1.098   0.696
 1880SOL    HW1 5667   2.831   1.051   0.750
 1880SOL    HW2 5668   2.960   1.030   0.653
 1881SOL     OW 5669   2.876   0.236   0.971
 1881SOL    HW1 5670   2.868   0.200   0.878
 1881SOL    HW2 5671   2.874   0.160   1.036
 1882SOL     OW 5672   2.452   1.487   0.491
 1882SOL    HW1 5673   2.494   1.429   0.421
 1882SOL    HW2 5674   2.408   1.566   0.447
 1883SOL     OW 5675   3.571   0.385   1.381
 1883SOL    HW1 5676   3.644   0.454   1.385
 1883SOL    HW2 5677   3.599   0.310   1.322
 1884SOL     OW 5678   2.117   1.348   0.290
 1884SOL    HW1 5679   2.021   1.349   0.263
 1884SOL    HW2 5680   2.129   1.401   0.374
 1885SOL     OW 5681   1.967   1.013   1.726
 1885SOL    HW1 5682   1.890   0.980   1.780
 1885SOL    HW2 5683   2.052   0.983   1.768
 1886SOL     OW 5684   2.534   0.203   1.489
 1886SOL    HW1 5685   2.624   0.187   1.449
 1886SOL    HW2 5686   2.542   0.208   1.588
 1887SOL     OW 5687   3.302   0.856   1.398
 1887SOL    HW1 5688   3.245   0.908   1.335
 1887SOL    HW2 5689   3.398   0.868   1.374
 1888SOL     OW 5690   1.934   0.166   0.318
 1888SOL    HW1 5691   1.917   0.249   0.264
 1888SOL    HW2 5692   2.024   0.129   0.296
 1889SOL     OW 5693   3.045   1.335   0.119
 1889SOL    HW1 5694   2.946   1.324   0.121
 1889SOL    HW2 5695   3.079   1.350   0.212
 1890SOL     OW 5696   2.475   0.842   1.431
 1890SOL    HW1 5697   2.531   0.923   1.414
 1890SOL    HW2 5698   2.534   0.762   1.434
 1891SOL     OW 5699   3.355   1.767   0.959
 1891SOL    HW1 5700   3.388   1.831   0.890
 1891SOL    HW2 5701   3.421   1.761   1.034
 1892SOL     OW 5702   2.578   0.565   1.708
 1892SOL    HW1 5703   2.597   0.630   1.782
 1892SOL    HW2 5704   2.638   0.485   1.717
 1893SOL     OW 5705   3.312   1.220   1.633
 1893SOL    HW1 5706   3.303   1.210   1.732
 1893SOL    HW2 5707   3.408   1.213   1.607
 1894SOL     OW 5708   2.252   1.741   1.560
 1894SOL    HW1 5709   2.161   1.782   1.558
 1894SOL    HW2 5710   2.245   1.647   1.592
 1895SOL     OW 5711   3.536   0.883   1.254
 1895SOL    HW1 5712   3.509   0.794   1.217
 1895SOL    HW2 5713   3.537   0.951   1.181
 1896SOL     OW 5714   3.087   0.325   0.449
 1896SOL    HW1 5715   3.152   0.251   0.438
 1896SOL    HW2 5716   3.107   0.375   0.533
 1897SOL     OW 5717   2.456   0.745   0.652
 1897SOL    HW1 5718   2.506   0.830   0.633
 1897SOL    HW2 5719   2.368   0.747   0.604
 1898SOL     OW 5720   3.639   0.342   1.642
 1898SOL    HW1 5721   3.622   0.373   1.548
 1898SOL    HW2 5722   3.555   0.305   1.680
 1899SOL     OW 5723   3.592   0.934   1.517
 1899SOL    HW1 5724   3.630   1.025   1.532
 1899SOL    HW2 5725   3.584   0.917   1.418
 1900SOL     OW 5726   2.721   1.374   0.016
 1900SOL    HW1 5727   2.675   1.389   0.104
 1900SOL    HW2 5728   2.765   1.459  -0.014
 1901SOL     OW 5729   2.523   1.790   0.953
 1901SOL    HW1 5730   2.477   1.878   0.940
 1901SOL    HW2 5731   2.622   1.802   0.946
 1902SOL     OW 5732   2.721   0.956   0.861
 1902SOL    HW1 5733   2.775   0.887   0.909
 1902SOL    HW2 5734   2.689   1.025   0.927
 1903SOL     OW 5735   2.945   0.984   0.087
 1903SOL    HW1 5736   2.922   1.037   0.005
 1903SOL    HW2 5737   3.026   0.928   0.068
 1904SOL     OW 5738   3.723   1.569   0.851
 1904SOL    HW1 5739   3.652   1.557   0.781
 1904SOL    HW2 5740   3.724   1.490   0.911
 1905SOL     OW 5741   2.083   1.314   1.844
 1905SOL    HW1 5742   2.018   1.241   1.823
 1905SOL    HW2 5743   2.087   1.328   1.942
 1906SOL     OW 5744   1.941   1.240   0.653
 1906SOL    HW1 5745   1.940   1.193   0.741
 1906SOL    HW2 5746   2.023   1.212   0.602
 1907SOL     OW 5747   2.534   1.391   1.624
 1907SOL    HW1 5748   2.456   1.341   1.662
 1907SOL    HW2 5749   2.531   1.486   1.655
 1908SOL     OW 5750   3.686   0.192   1.227
 1908SOL    HW1 5751   3.682   0.102   1.271
 1908SOL    HW2 5752   3.689   0.181   1.128
 1909SOL     OW 5753   2.290   0.424   0.520
 1909SOL    HW1 5754   2.320   0.352   0.458
 1909SOL    HW2 5755   2.251   0.384   0.603
 1910SOL     OW 5756   3.567   1.487   1.104
 1910SOL    HW1 5757   3.474   1.462   1.077
 1910SOL    HW2 5758   3.593   1.437   1.186
 1911SOL     OW 5759   2.179   0.547   1.280
 1911SOL    HW1 5760   2.217   0.488   1.352
 1911SOL    HW2 5761   2.219   0.521   1.192
 1912SOL     OW 5762   2.674   1.586   0.687
 1912SOL    HW1 5763   2.706   1.596   0.593
 1912SOL    HW2 5764   2.595   1.524   0.689
 1913SOL     OW 5765   3.286   0.214   1.112
 1913SOL    HW1 5766   3.338   0.149   1.167
 1913SOL    HW2 5767   3.237   0.277   1.173
 1914SOL     OW 5768   2.863   0.034   1.154
 1914SOL    HW1 5769   2.800  -0.038   1.123
 1914SOL    HW2 5770   2.956  -0.002   1.154
 1915SOL     OW 5771   2.632   1.330   0.301
 1915SOL    HW1 5772   2.586   1.243   0.318
 1915SOL    HW2 5773   2.723   1.327   0.342
 1916SOL     OW 5774   2.480   1.567   1.284
 1916SOL    HW1 5775   2.475   1.649   1.341
 1916SOL    HW2 5776   2.569   1.564   1.239
 1917SOL     OW 5777   3.214   0.052   0.168
 1917SOL    HW1 5778   3.249   0.011   0.084
 1917SOL    HW2 5779   3.124   0.014   0.188
 1918SOL     OW 5780   3.162   0.453   0.691
 1918SOL    HW1 5781   3.103   0.533   0.695
 1918SOL    HW2 5782   3.177   0.418   0.784
 1919SOL     OW 5783   3.455   0.221   0.882
 1919SOL    HW1 5784   3.371   0.220   0.936
 1919SOL    HW2 5785   3.457   0.304   0.826
 1920SOL     OW 5786   1.901   1.077   0.300
 1920SOL    HW1 5787   2.000   1.066   0.291
 1920SOL    HW2 5788   1.861   0.991   0.332
 1921SOL     OW 5789   2.737   1.646   0.337
 1921SOL    HW1 5790   2.660   1.611   0.283
 1921SOL    HW2 5791   2.705   1.717   0.399
 1922SOL     OW 5792   2.092   0.628   1.975
 1922SOL    HW1 5793   1.999   0.626   2.012
 1922SOL    HW2 5794   2.093   0.589   1.883
 1923SOL     OW 5795   2.087   0.275   2.858
 1923SOL    HW1 5796   2.122   0.258   2.950
 1923SOL    HW2 5797   1.999   0.230   2.846
 1924SOL     OW 5798   1.881   0.368   2.509
 1924SOL    HW1 5799   1.799   0.411   2.548
 1924SOL    HW2 5800   1.853   0.295   2.446
 1925SOL     OW 5801   2.431   1.275   3.027
 1925SOL    HW1 5802   2.338   1.268   2.990
 1925SOL    HW2 5803   2.442   1.364   3.071
 1926SOL     OW 5804   3.417   1.511   2.565
 1926SOL    HW1 5805   3.360   1.495   2.646
 1926SOL    HW2 5806   3.358   1.521   2.485
 1927SOL     OW 5807   2.997   0.703   2.579
 1927SOL    HW1 5808   3.054   0.781   2.554
 1927SOL    HW2 5809   2.937   0.729   2.655
 1928SOL     OW 5810   3.617   0.607   2.093
 1928SOL    HW1 5811   3.605   0.594   1.994
 1928SOL    HW2 5812   3.587   0.526   2.142
 1929SOL     OW 5813   2.630   1.144   2.885
 1929SOL    HW1 5814   2.552   1.161   2.945
 1929SOL    HW2 5815   2.664   1.231   2.849
 1930SOL     OW 5816   2.712   0.798   3.685
 1930SOL    HW1 5817   2.708   0.874   3.750
 1930SOL    HW2 5818   2.734   0.834   3.594
 1931SOL     OW 5819   2.547   1.012   2.527
 1931SOL    HW1 5820   2.616   0.996   2.597
 1931SOL    HW2 5821   2.474   1.069   2.565
 1932SOL     OW 5822   2.548   1.161   3.665
 1932SOL    HW1 5823   2.608   1.240   3.679
 1932SOL    HW2 5824   2.462   1.192   3.624
 1933SOL     OW 5825   2.197   1.435   2.923
 1933SOL    HW1 5826   2.119   1.404   2.870
 1933SOL    HW2 5827   2.255   1.493   2.866
 1934SOL     OW 5828   3.322   1.505   3.201
 1934SOL    HW1 5829   3.346   1.599   3.227
 1934SOL    HW2 5830   3.306   1.451   3.283
 1935SOL     OW 5831   2.300   0.392   3.361
 1935SOL    HW1 5832   2.382   0.336   3.370
 1935SOL    HW2 5833   2.219   0.334   3.365
 1936SOL     OW 5834   3.465   0.447   2.599
 1936SOL    HW1 5835   3.391   0.493   2.549
 1936SOL    HW2 5836   3.516   0.515   2.652
 1937SOL     OW 5837   2.093   1.713   2.345
 1937SOL    HW1 5838   2.127   1.790   2.399
 1937SOL    HW2 5839   2.137   1.713   2.255
 1938SOL     OW 5840   2.989   1.341   3.552
 1938SOL    HW1 5841   3.036   1.341   3.640
 1938SOL    HW2 5842   2.941   1.254   3.541
 1939SOL     OW 5843   2.092   1.434   2.400
 1939SOL    HW1 5844   2.066   1.530   2.400
 1939SOL    HW2 5845   2.021   1.380   2.445
 1940SOL     OW 5846   2.102   1.091   2.748
 1940SOL    HW1 5847   2.116   1.007   2.800
 1940SOL    HW2 5848   2.047   1.155   2.803
 1941SOL     OW 5849   2.482   1.786   3.301
 1941SOL    HW1 5850   2.390   1.769   3.336
 1941SOL    HW2 5851   2.510   1.878   3.327
 1942SOL     OW 5852   2.468   0.964   1.985
 1942SOL    HW1 5853   2.475   1.048   1.931
 1942SOL    HW2 5854   2.514   0.977   2.073
 1943SOL     OW 5855   3.456   0.114   3.342
 1943SOL    HW1 5856   3.438   0.181   3.270
 1943SOL    HW2 5857   3.453   0.160   3.431
 1944SOL     OW 5858   1.984   0.643   2.425
 1944SOL    HW1 5859   1.939   0.555   2.442
 1944SOL    HW2 5860   1.983   0.697   2.509
 1945SOL     OW 5861   3.704   1.767   2.221
 1945SOL    HW1 5862   3.758   1.738   2.301
 1945SOL    HW2 5863   3.734   1.857   2.192
 1946SOL     OW 5864   1.889   1.596   1.979
 1946SOL    HW1 5865   1.870   1.500   2.000
 1946SOL    HW2 5866   1.856   1.654   2.054
 1947SOL     OW 5867   3.551   0.922   2.474
 1947SOL    HW1 5868   3.646   0.893   2.482
 1947SOL    HW2 5869   3.543   0.987   2.399
 1948SOL     OW 5870   3.503   1.108   2.294
 1948SOL    HW1 5871   3.589   1.110   2.242
 1948SOL    HW2 5872   3.517   1.155   2.382
 1949SOL     OW 5873   1.975   0.737   3.459
 1949SOL    HW1 5874   2.063   0.724   3.504
 1949SOL    HW2 5875   1.962   0.834   3.437
 1950SOL     OW 5876   2.475   1.365   2.588
 1950SOL    HW1 5877   2.426   1.278   2.597
 1950SOL    HW2 5878   2.452   1.408   2.501
 1951SOL     OW 5879   3.155   1.228   3.285
 1951SOL    HW1 5880   3.192   1.155   3.227
 1951SOL    HW2 5881   3.207   1.233   3.370
 1952SOL     OW 5882   2.671   0.004   2.364
 1952SOL    HW1 5883   2.711   0.095   2.355
 1952SOL    HW2 5884   2.571   0.012   2.370
 1953SOL     OW 5885   2.059   0.976   3.126
 1953SOL    HW1 5886   2.148   0.931   3.112
 1953SOL    HW2 5887   1.986   0.911   3.107
 1954SOL     OW 5888   3.387   0.999   2.052
 1954SOL    HW1 5889   3.324   0.923   2.065
 1954SOL    HW2 5890   3.435   1.017   2.138
 1955SOL     OW 5891   3.049   1.792   3.478
 1955SOL    HW1 5892   3.073   1.852   3.402
 1955SOL    HW2 5893   3.056   1.697   3.448
 1956SOL     OW 5894   2.179   0.251   3.663
 1956SOL    HW1 5895   2.250   0.322   3.669
 1956SOL    HW2 5896   2.091   0.290   3.691
 1957SOL     OW 5897   3.328   1.417   2.815
 1957SOL    HW1 5898   3.269   1.423   2.895
 1957SOL    HW2 5899   3.313   1.329   2.769
 1958SOL     OW 5900   3.529   1.714   2.434
 1958SOL    HW1 5901   3.488   1.691   2.346
 1958SOL    HW2 5902   3.511   1.640   2.499
 1959SOL     OW 5903   2.460   0.729   2.132
 1959SOL    HW1 5904   2.484   0.798   2.064
 1959SOL    HW2 5905   2.382   0.762   2.186
 1960SOL     OW 5906   3.143   0.345   2.806
 1960SOL    HW1 5907   3.057   0.295   2.793
 1960SOL    HW2 5908   3.205   0.291   2.862
 1961SOL     OW 5909   3.438   1.662   2.169
 1961SOL    HW1 5910   3.527   1.708   2.172
 1961SOL    HW2 5911   3.417   1.638   2.074
 1962SOL     OW 5912   2.669   0.605   3.327
 1962SOL    HW1 5913   2.622   0.602   3.416
 1962SOL    HW2 5914   2.618   0.550   3.261
 1963SOL     OW 5915   3.256   0.469   3.536
 1963SOL    HW1 5916   3.236   0.512   3.624
 1963SOL    HW2 5917   3.334   0.407   3.545
 1964SOL     OW 5918   2.835   0.890   3.434
 1964SOL    HW1 5919   2.881   0.806   3.405
 1964SOL    HW2 5920   2.779   0.924   3.359
 1965SOL     OW 5921   2.853   0.410   3.104
 1965SOL    HW1 5922   2.776   0.444   3.158
 1965SOL    HW2 5923   2.819   0.359   3.025
 1966SOL     OW 5924   2.903   0.701   2.291
 1966SOL    HW1 5925   2.929   0.697   2.387
 1966SOL    HW2 5926   2.818   0.650   2.277
 1967SOL     OW 5927   1.938   0.811   2.651
 1967SOL    HW1 5928   2.037   0.799   2.660
 1967SOL    HW2 5929   1.914   0.906   2.672
 1968SOL     OW 5930   1.992   1.821   3.433
 1968SOL    HW1 5931   1.982   1.806   3.532
 1968SOL    HW2 5932   1.906   1.857   3.397
 1969SOL     OW 5933   2.727   0.348   2.057
 1969SOL    HW1 5934   2.786   0.411   2.008
 1969SOL    HW2 5935   2.746   0.254   2.028
 1970SOL     OW 5936   3.581   0.585   3.693
 1970SOL    HW1 5937   3.555   0.674   3.657
 1970SOL    HW2 5938   3.579   0.517   3.620
 1971SOL     OW 5939   3.224   1.144   2.407
 1971SOL    HW1 5940   3.307   1.115   2.359
 1971SOL    HW2 5941   3.175   1.211   2.351
 1972SOL     OW 5942   2.412   0.196   2.747
 1972SOL    HW1 5943   2.407   0.191   2.847
 1972SOL    HW2 5944   2.414   0.292   2.718
 1973SOL     OW 5945   2.870   1.456   2.339
 1973SOL    HW1 5946   2.824   1.528   2.287
 1973SOL    HW2 5947   2.866   1.476   2.437
 1974SOL     OW 5948   2.213   1.801   2.715
 1974SOL    HW1 5949   2.263   1.715   2.721
 1974SOL    HW2 5950   2.278   1.878   2.712
 1975SOL     OW 5951   3.657   1.066   2.735
 1975SOL    HW1 5952   3.595   1.051   2.659
 1975SOL    HW2 5953   3.605   1.077   2.820
 1976SOL     OW 5954   3.089   1.550   3.368
 1976SOL    HW1 5955   3.095   1.473   3.432
 1976SOL    HW2 5956   3.037   1.524   3.288
 1977SOL     OW 5957   2.183   0.943   2.104
 1977SOL    HW1 5958   2.265   0.982   2.062
 1977SOL    HW2 5959   2.156   0.861   2.055
 1978SOL     OW 5960   3.320   0.735   2.590
 1978SOL    HW1 5961   3.315   0.670   2.665
 1978SOL    HW2 5962   3.400   0.794   2.603
 1979SOL     OW 5963   2.323   1.266   3.589
 1979SOL    HW1 5964   2.273   1.267   3.503
 1979SOL    HW2 5965   2.260   1.248   3.665
 1980SOL     OW 5966   2.973   1.776   2.099
 1980SOL    HW1 5967   2.913   1.714   2.149
 1980SOL    HW2 5968   3.004   1.732   2.014
 1981SOL     OW 5969   2.064   0.285   3.360
 1981SOL    HW1 5970   1.984   0.345   3.347
 1981SOL    HW2 5971   2.054   0.236   3.446
 1982SOL     OW 5972   3.494   1.377   1.943
 1982SOL    HW1 5973   3.462   1.471   1.933
 1982SOL    HW2 5974   3.418   1.314   1.931
 1983SOL     OW 5975   2.326   1.743   2.185
 1983SOL    HW1 5976   2.359   1.782   2.271
 1983SOL    HW2 5977   2.402   1.736   2.120
 1984SOL     OW 5978   3.262   0.107   2.288
 1984SOL    HW1 5979   3.238   0.070   2.198
 1984SOL    HW2 5980   3.361   0.123   2.292
 1985SOL     OW 5981   2.111   1.785   3.103
 1985SOL    HW1 5982   2.168   1.720   3.153
 1985SOL    HW2 5983   2.095   1.752   3.010
 1986SOL     OW 5984   2.802   1.698   2.766
 1986SOL    HW1 5985   2.882   1.641   2.787
 1986SOL    HW2 5986   2.753   1.658   2.689
 1987SOL     OW 5987   2.244   0.700   2.342
 1987SOL    HW1 5988   2.289   0.610   2.339
 1987SOL    HW2 5989   2.150   0.689   2.375
 1988SOL     OW 5990   3.409   0.222   3.591
 1988SOL    HW1 5991   3.404   0.259   3.683
 1988SOL    HW2 5992   3.337   0.153   3.579
 1989SOL     OW 5993   2.476   0.122   1.979
 1989SOL    HW1 5994   2.574   0.100   1.986
 1989SOL    HW2 5995   2.445   0.105   1.886
 1990SOL     OW 5996   2.643   0.264   3.611
 1990SOL    HW1 5997   2.710   0.203   3.654
 1990SOL    HW2 5998   2.570   0.283   3.676
 1991SOL     OW 5999   2.750   1.514   3.057
 1991SOL    HW1 6000   2.727   1.489   2.963
 1991SOL    HW2 6001   2.811   1.445   3.096
 1992SOL     OW 6002   3.213   0.590   3.295
 1992SOL    HW1 6003   3.241   0.547   3.380
 1992SOL    HW2 6004   3.238   0.686   3.296
 1993SOL     OW 6005   2.665   1.402   2.786
 1993SOL    HW1 6006   2.755   1.416   2.744
 1993SOL    HW2 6007   2.594   1.404   2.715
 1994SOL     OW 6008   2.784   0.503   2.761
 1994SOL    HW1 6009   2.759   0.494   2.665
 1994SOL    HW2 6010   2.832   0.421   2.792
 1995SOL     OW 6011   2.401   0.064   2.374
 1995SOL    HW1 6012   2.320   0.065   2.432
 1995SOL    HW2 6013   2.404   0.147   2.319
 1996SOL     OW 6014   3.296   1.188   1.903
 1996SOL    HW1 6015   3.328   1.112   1.960
 1996SOL    HW2 6016   3.204   1.215   1.933
 1997SOL     OW 6017   2.159   0.035   2.033
 1997SOL    HW1 6018   2.208   0.119   2.012
 1997SOL    HW2 6019   2.221  -0.030   2.078
 1998SOL     OW 6020   2.797   0.236   2.342
 1998SOL    HW1 6021   2.749   0.277   2.264
 1998SOL    HW2 6022   2.896   0.234   2.323
 1999SOL     OW 6023   2.938   0.683   3.326
 1999SOL    HW1 6024   2.858   0.622   3.329
 1999SOL    HW2 6025   3.019   0.630   3.302
 2000SOL     OW 6026   3.089   1.570   2.655
 2000SOL    HW1 6027   3.110   1.644   2.590
 2000SOL    HW2 6028   3.157   1.570   2.728
 2001SOL     OW 6029   2.321   1.152   2.603
 2001SOL    HW1 6030   2.250   1.125   2.668
 2001SOL    HW2 6031   2.295   1.124   2.510
 2002SOL     OW 6032   3.133   1.797   2.453
 2002SOL    HW1 6033   3.177   1.861   2.389
 2002SOL    HW2 6034   3.083   1.849   2.523
 2003SOL     OW 6035   2.894   0.549   1.878
 2003SOL    HW1 6036   2.853   0.631   1.839
 2003SOL    HW2 6037   2.958   0.575   1.951
 2004SOL     OW 6038   1.940   0.556   3.248
 2004SOL    HW1 6039   2.032   0.555   3.207
 2004SOL    HW2 6040   1.934   0.630   3.315
 2005SOL     OW 6041   2.423   0.222   3.009
 2005SOL    HW1 6042   2.461   0.138   3.046
 2005SOL    HW2 6043   2.335   0.241   3.053
 2006SOL     OW 6044   2.728   0.454   2.504
 2006SOL    HW1 6045   2.696   0.526   2.442
 2006SOL    HW2 6046   2.752   0.373   2.451
 2007SOL     OW 6047   2.879   0.039   2.615
 2007SOL    HW1 6048   2.807   0.044   2.546
 2007SOL    HW2 6049   2.855  -0.030   2.684
 2008SOL     OW 6050   3.291   1.173   2.729
 2008SOL    HW1 6051   3.236   1.089   2.722
 2008SOL    HW2 6052   3.317   1.202   2.637
 2009SOL     OW 6053   3.328   0.590   2.854
 2009SOL    HW1 6054   3.298   0.495   2.861
 2009SOL    HW2 6055   3.401   0.606   2.920
 2010SOL     OW 6056   3.719   0.833   2.239
 2010SOL    HW1 6057   3.761   0.769   2.303
 2010SOL    HW2 6058   3.681   0.782   2.161
 2011SOL     OW 6059   2.350   1.385   2.036
 2011SOL    HW1 6060   2.263   1.370   2.083
 2011SOL    HW2 6061   2.333   1.411   1.941
 2012SOL     OW 6062   3.526   1.280   2.519
 2012SOL    HW1 6063   3.625   1.288   2.533
 2012SOL    HW2 6064   3.481   1.364   2.550
 2013SOL     OW 6065   3.252   0.575   1.940
 2013SOL    HW1 6066   3.198   0.554   2.021
 2013SOL    HW2 6067   3.343   0.534   1.949
 2014SOL     OW 6068   2.389   0.256   2.190
 2014SOL    HW1 6069   2.416   0.197   2.115
 2014SOL    HW2 6070   2.389   0.351   2.159
 2015SOL     OW 6071   3.616   1.223   3.450
 2015SOL    HW1 6072   3.707   1.184   3.437
 2015SOL    HW2 6073   3.624   1.319   3.474
 2016SOL     OW 6074   2.926   1.347   3.202
 2016SOL    HW1 6075   2.846   1.324   3.257
 2016SOL    HW2 6076   3.009   1.321   3.251
 2017SOL     OW 6077   3.454   1.629   3.487
 2017SOL    HW1 6078   3.481   1.663   3.397
 2017SOL    HW2 6079   3.533   1.591   3.533
 2018SOL     OW 6080   2.973   1.195   2.962
 2018SOL    HW1 6081   2.933   1.239   3.043
 2018SOL    HW2 6082   2.932   1.232   2.879
 2019SOL     OW 6083   3.500   1.099   2.941
 2019SOL    HW1 6084   3.505   1.180   3.000
 2019SOL    HW2 6085   3.414   1.101   2.890
 2020SOL     OW 6086   2.777   0.089   3.264
 2020SOL    HW1 6087   2.802   0.069   3.169
 2020SOL    HW2 6088   2.849   0.145   3.306
 2021SOL     OW 6089   2.842   1.116   3.581
 2021SOL    HW1 6090   2.743   1.122   3.591
 2021SOL    HW2 6091   2.865   1.036   3.525
 2022SOL     OW 6092   2.567   1.050   2.230
 2022SOL    HW1 6093   2.553   1.057   2.329
 2022SOL    HW2 6094   2.651   0.999   2.212
 2023SOL     OW 6095   2.272   0.813   3.113
 2023SOL    HW1 6096   2.358   0.825   3.163
 2023SOL    HW2 6097   2.230   0.726   3.140
 2024SOL     OW 6098   3.136   0.386   3.124
 2024SOL    HW1 6099   3.157   0.460   3.188
 2024SOL    HW2 6100   3.047   0.403   3.081
 2025SOL     OW 6101   1.926   1.564   3.193
 2025SOL    HW1 6102   1.880   1.646   3.159
 2025SOL    HW2 6103   2.024   1.583   3.202
 2026SOL     OW 6104   2.229   1.100   2.363
 2026SOL    HW1 6105   2.222   1.183   2.307
 2026SOL    HW2 6106   2.233   1.020   2.303
 2027SOL     OW 6107   2.428   0.537   2.727
 2027SOL    HW1 6108   2.440   0.603   2.653
 2027SOL    HW2 6109   2.474   0.571   2.810
 2028SOL     OW 6110   3.114   1.348   2.250
 2028SOL    HW1 6111   3.164   1.425   2.290
 2028SOL    HW2 6112   3.019   1.350   2.282
 2029SOL     OW 6113   3.134   1.445   3.004
 2029SOL    HW1 6114   3.181   1.458   3.091
 2029SOL    HW2 6115   3.068   1.371   3.013
 2030SOL     OW 6116   3.444   0.639   2.334
 2030SOL    HW1 6117   3.413   0.700   2.407
 2030SOL    HW2 6118   3.494   0.691   2.265
 2031SOL     OW 6119   2.216   1.510   3.191
 2031SOL    HW1 6120   2.195   1.466   3.104
 2031SOL    HW2 6121   2.313   1.536   3.194
 2032SOL     OW 6122   2.264   0.751   3.460
 2032SOL    HW1 6123   2.332   0.806   3.413
 2032SOL    HW2 6124   2.304   0.663   3.487
 2033SOL     OW 6125   3.449   0.779   3.532
 2033SOL    HW1 6126   3.357   0.817   3.527
 2033SOL    HW2 6127   3.509   0.826   3.467
 2034SOL     OW 6128   2.875   0.105   3.632
 2034SOL    HW1 6129   2.881   0.190   3.580
 2034SOL    HW2 6130   2.907   0.029   3.575
 2035SOL     OW 6131   2.366   0.050   3.602
 2035SOL    HW1 6132   2.324  -0.007   3.532
 2035SOL    HW2 6133   2.300   0.119   3.634
 2036SOL     OW 6134   2.435   0.870   2.891
 2036SOL    HW1 6135   2.479   0.959   2.882
 2036SOL    HW2 6136   2.372   0.870   2.968
 2037SOL     OW 6137   3.222   0.862   2.907
 2037SOL    HW1 6138   3.147   0.862   2.841
 2037SOL    HW2 6139   3.259   0.770   2.916
 2038SOL     OW 6140   3.071   0.525   2.137
 2038SOL    HW1 6141   3.084   0.441   2.191
 2038SOL    HW2 6142   3.042   0.599   2.197
 2039SOL     OW 6143   2.169   0.213   3.093
 2039SOL    HW1 6144   2.146   0.250   3.183
 2039SOL    HW2 6145   2.139   0.118   3.087
 2040SOL     OW 6146   1.899   1.310   3.144
 2040SOL    HW1 6147   1.952   1.261   3.212
 2040SOL    HW2 6148   1.921   1.408   3.149
 2041SOL     OW 6149   2.594   0.634   2.926
 2041SOL    HW1 6150   2.653   0.608   2.850
 2041SOL    HW2 6151   2.566   0.730   2.915
 2042SOL     OW 6152   3.590   0.935   3.716
 2042SOL    HW1 6153   3.544   0.928   3.627
 2042SOL    HW2 6154   3.528   0.979   3.782
 2043SOL     OW 6155   2.169   0.063   2.480
 2043SOL    HW1 6156   2.158   0.157   2.513
 2043SOL    HW2 6157   2.164   0.000   2.557
 2044SOL     OW 6158   3.484   0.367   2.236
 2044SOL    HW1 6159   3.486   0.291   2.300
 2044SOL    HW2 6160   3.436   0.444   2.276
 2045SOL     OW 6161   2.885   0.766   2.828
 2045SOL    HW1 6162   2.900   0.787   2.924
 2045SOL    HW2 6163   2.855   0.671   2.819
 2046SOL     OW 6164   2.842   1.573   3.562
 2046SOL    HW1 6165   2.822   1.617   3.474
 2046SOL    HW2 6166   2.881   1.482   3.546
 2047SOL     OW 6167   3.721   1.518   3.467
 2047SOL    HW1 6168   3.735   1.545   3.372
 2047SOL    HW2 6169   3.804   1.540   3.520
 2048SOL     OW 6170   2.212   0.898   3.666
 2048SOL    HW1 6171   2.288   0.942   3.714
 2048SOL    HW2 6172   2.247   0.851   3.584
 2049SOL     OW 6173   3.402   0.274   1.987
 2049SOL    HW1 6174   3.341   0.199   2.010
 2049SOL    HW2 6175   3.424   0.326   2.070
 2050SOL     OW 6176   3.165   0.838   1.904
 2050SOL    HW1 6177   3.199   0.745   1.919
 2050SOL    HW2 6178   3.183   0.865   1.809
 2051SOL     OW 6179   2.930   1.333   2.711
 2051SOL    HW1 6180   2.937   1.249   2.656
 2051SOL    HW2 6181   2.992   1.402   2.675
 2052SOL     OW 6182   2.181   0.810   2.811
 2052SOL    HW1 6183   2.274   0.846   2.816
 2052SOL    HW2 6184   2.175   0.725   2.863
 2053SOL     OW 6185   2.201   0.509   2.868
 2053SOL    HW1 6186   2.149   0.426   2.851
 2053SOL    HW2 6187   2.278   0.514   2.804
 2054SOL     OW 6188   3.000   0.380   3.540
 2054SOL    HW1 6189   2.955   0.443   3.604
 2054SOL    HW2 6190   3.093   0.411   3.523
 2055SOL     OW 6191   3.022   0.207   3.339
 2055SOL    HW1 6192   3.022   0.271   3.416
 2055SOL    HW2 6193   3.050   0.255   3.256
 2056SOL     OW 6194   1.870   1.326   2.062
 2056SOL    HW1 6195   1.777   1.347   2.031
 2056SOL    HW2 6196   1.880   1.227   2.075
 2057SOL     OW 6197   1.950   1.801   2.789
 2057SOL    HW1 6198   1.908   1.715   2.762
 2057SOL    HW2 6199   2.044   1.804   2.755
 2058SOL     OW 6200   2.366   1.568   2.772
 2058SOL    HW1 6201   2.432   1.642   2.781
 2058SOL    HW2 6202   2.410   1.489   2.730
 2059SOL     OW 6203   2.864   0.796   3.100
 2059SOL    HW1 6204   2.905   0.764   3.186
 2059SOL    HW2 6205   2.768   0.769   3.097
 2060SOL     OW 6206   1.902   0.544   2.976
 2060SOL    HW1 6207   1.987   0.511   2.935
 2060SOL    HW2 6208   1.915   0.559   3.074
 2061SOL     OW 6209   2.051   0.520   3.584
 2061SOL    HW1 6210   2.110   0.480   3.514
 2061SOL    HW2 6211   1.993   0.591   3.543
 2062SOL     OW 6212   3.231   0.950   3.522
 2062SOL    HW1 6213   3.270   1.039   3.542
 2062SOL    HW2 6214   3.241   0.930   3.425
 2063SOL     OW 6215   2.677   0.572   2.187
 2063SOL    HW1 6216   2.684   0.483   2.141
 2063SOL    HW2 6217   2.583   0.606   2.179
 2064SOL     OW 6218   3.519   0.604   3.068
 2064SOL    HW1 6219   3.481   0.535   3.130
 2064SOL    HW2 6220   3.601   0.568   3.024
 2065SOL     OW 6221   2.114   1.564   3.606
 2065SOL    HW1 6222   2.084   1.621   3.682
 2065SOL    HW2 6223   2.107   1.467   3.632
 2066SOL     OW 6224   2.533   0.464   3.131
 2066SOL    HW1 6225   2.499   0.375   3.101
 2066SOL    HW2 6226   2.559   0.518   3.051
 2067SOL     OW 6227   2.792   1.678   3.327
 2067SOL    HW1 6228   2.768   1.660   3.232
 2067SOL    HW2 6229   2.822   1.772   3.337
 2068SOL     OW 6230   2.335   0.500   2.053
 2068SOL    HW1 6231   2.396   0.580   2.057
 2068SOL    HW2 6232   2.240   0.531   2.060
 2069SOL     OW 6233   2.021   1.137   3.328
 2069SOL    HW1 6234   2.043   1.076   3.404
 2069SOL    HW2 6235   2.031   1.088   3.242
 2070SOL     OW 6236   3.209   1.059   3.096
 2070SOL    HW1 6237   3.233   0.996   3.022
 2070SOL    HW2 6238   3.119   1.099   3.078
 2071SOL     OW 6239   3.164   0.855   2.171
 2071SOL    HW1 6240   3.078   0.824   2.213
 2071SOL    HW2 6241   3.160   0.841   2.072
 2072SOL     OW 6242   3.621   1.747   3.016
 2072SOL    HW1 6243   3.682   1.777   2.943
 2072SOL    HW2 6244   3.583   1.658   2.994
 2073SOL     OW 6245   3.114   1.731   2.990
 2073SOL    HW1 6246   3.198   1.736   2.936
 2073SOL    HW2 6247   3.091   1.635   3.008
 2074SOL     OW 6248   1.945   1.258   2.884
 2074SOL    HW1 6249   1.940   1.257   2.984
 2074SOL    HW2 6250   1.862   1.217   2.846
 2075SOL     OW 6251   2.550   1.662   3.578
 2075SOL    HW1 6252   2.494   1.743   3.587
 2075SOL    HW2 6253   2.602   1.666   3.492
 2076SOL     OW 6254   3.588   0.135   2.385
 2076SOL    HW1 6255   3.661   0.118   2.318
 2076SOL    HW2 6256   3.557   0.048   2.423
 2077SOL     OW 6257   3.250   1.573   2.339
 2077SOL    HW1 6258   3.317   1.585   2.265
 2077SOL    HW2 6259   3.210   1.662   2.362
 2078SOL     OW 6260   1.992   1.794   3.713
 2078SOL    HW1 6261   1.951   1.720   3.766
 2078SOL    HW2 6262   2.056   1.845   3.771
 2079SOL     OW 6263   3.142   0.927   2.534
 2079SOL    HW1 6264   3.202   0.846   2.536
 2079SOL    HW2 6265   3.182   0.996   2.474
 2080SOL     OW 6266   2.692   1.273   3.284
 2080SOL    HW1 6267   2.687   1.306   3.379
 2080SOL    HW2 6268   2.606   1.292   3.238
 2081SOL     OW 6269   2.534   1.616   2.016
 2081SOL    HW1 6270   2.543   1.626   1.917
 2081SOL    HW2 6271   2.494   1.527   2.037
 2082SOL     OW 6272   3.512   1.720   3.256
 2082SOL    HW1 6273   3.565   1.730   3.172
 2082SOL    HW2 6274   3.485   1.810   3.290
 2083SOL     OW 6275   3.703   0.175   2.825
 2083SOL    HW1 6276   3.742   0.090   2.789
 2083SOL    HW2 6277   3.605   0.177   2.806
 2084SOL     OW 6278   2.125   0.326   2.582
 2084SOL    HW1 6279   2.046   0.377   2.548
 2084SOL    HW2 6280   2.116   0.311   2.680
 2085SOL     OW 6281   3.056   1.612   1.893
 2085SOL    HW1 6282   3.062   1.519   1.930
 2085SOL    HW2 6283   2.997   1.612   1.813
 2086SOL     OW 6284   2.684   1.002   3.234
 2086SOL    HW1 6285   2.724   1.001   3.142
 2086SOL    HW2 6286   2.694   1.094   3.274
 2087SOL     OW 6287   2.778   0.910   2.153
 2087SOL    HW1 6288   2.841   0.948   2.085
 2087SOL    HW2 6289   2.818   0.827   2.192
 2088SOL     OW 6290   3.366   1.607   1.906
 2088SOL    HW1 6291   3.274   1.644   1.913
 2088SOL    HW2 6292   3.404   1.627   1.816
 2089SOL     OW 6293   2.234   1.288   3.352
 2089SOL    HW1 6294   2.221   1.381   3.318
 2089SOL    HW2 6295   2.150   1.236   3.339
 2090SOL     OW 6296   3.476   1.292   3.151
 2090SOL    HW1 6297   3.536   1.295   3.231
 2090SOL    HW2 6298   3.401   1.356   3.164
 2091SOL     OW 6299   2.901   1.098   2.558
 2091SOL    HW1 6300   2.831   1.051   2.612
 2091SOL    HW2 6301   2.960   1.030   2.515
 2092SOL     OW 6302   2.876   0.236   2.833
 2092SOL    HW1 6303   2.868   0.200   2.740
 2092SOL    HW2 6304   2.874   0.160   2.898
 2093SOL     OW 6305   2.452   1.487   2.353
 2093SOL    HW1 6306   2.494   1.429   2.283
 2093SOL    HW2 6307   2.408   1.566   2.309
 2094SOL     OW 6308   3.571   0.385   3.243
 2094SOL    HW1 6309   3.644   0.454   3.247
 2094SOL    HW2 6310   3.599   0.310   3.184
 2095SOL     OW 6311   2.117   1.348   2.152
 2095SOL    HW1 6312   2.021   1.349   2.125
 2095SOL    HW2 6313   2.129   1.401   2.236
 2096SOL     OW 6314   1.967   1.013   3.588
 2096SOL    HW1 6315   1.890   0.980   3.642
 2096SOL    HW2 6316   2.052   0.983   3.630
 2097SOL     OW 6317   2.534   0.203   3.351
 2097SOL    HW1 6318   2.624   0.187   3.311
 2097SOL    HW2 6319   2.542   0.208   3.450
 2098SOL     OW 6320   1.937   0.345   1.895
 2098SOL    HW1 6321   1.845   0.317   1.866
 2098SOL    HW2 6322   1.968   0.422   1.839
 2099SOL     OW 6323   3.302   0.856   3.260
 2099SOL    HW1 6324   3.245   0.908   3.197
 2099SOL    HW2 6325   3.398   0.868   3.236
 2100SOL     OW 6326   1.934   0.166   2.180
 2100SOL    HW1 6327   1.917   0.249   2.126
 2100SOL    HW2 6328   2.024   0.129   2.158
 2101SOL     OW 6329   3.045   1.335   1.981
 2101SOL    HW1 6330   2.946   1.324   1.983
 2101SOL    HW2 6331   3.079   1.350   2.074
 2102SOL     OW 6332   2.475   0.842   3.293
 2102SOL    HW1 6333   2.531   0.923   3.276
 2102SOL    HW2 6334   2.534   0.762   3.296
 2103SOL     OW 6335   3.355   1.767   2.821
 2103SOL    HW1 6336   3.388   1.831   2.752
 2103SOL    HW2 6337   3.421   1.761   2.896
 2104SOL     OW 6338   2.578   0.565   3.570
 2104SOL    HW1 6339   2.597   0.630   3.644
 2104SOL    HW2 6340   2.638   0.485   3.579
 2105SOL     OW 6341   3.312   1.220   3.495
 2105SOL    HW1 6342   3.303   1.210   3.594
 2105SOL    HW2 6343   3.408   1.213   3.469
 2106SOL     OW 6344   2.252   1.741   3.422
 2106SOL    HW1 6345   2.161   1.782   3.420
 2106SOL    HW2 6346   2.245   1.647   3.454
 2107SOL     OW 6347   3.536   0.883   3.116
 2107SOL    HW1 6348   3.509   0.794   3.079
 2107SOL    HW2 6349   3.537   0.951   3.043
 2108SOL     OW 6350   3.087   0.325   2.311
 2108SOL    HW1 6351   3.152   0.251   2.300
 2108SOL    HW2 6352   3.107   0.375   2.395
 2109SOL     OW 6353   2.456   0.745   2.514
 2109SOL    HW1 6354   2.506   0.830   2.495
 2109SOL    HW2 6355   2.368   0.747   2.466
 2110SOL     OW 6356   3.639   0.342   3.504
 2110SOL    HW1 6357   3.622   0.373   3.410
 2110SOL    HW2 6358   3.555   0.305   3.542
 2111SOL     OW 6359   3.592   0.934   3.379
 2111SOL    HW1 6360   3.630   1.025   3.394
 2111SOL    HW2 6361   3.584   0.917   3.280
 2112SOL     OW 6362   2.721   1.374   1.878
 2112SOL    HW1 6363   2.675   1.389   1.966
 2112SOL    HW2 6364   2.765   1.459   1.848
 2113SOL     OW 6365   2.523   1.790   2.815
 2113SOL    HW1 6366   2.477   1.878   2.802
 2113SOL    HW2 6367   2.622   1.802   2.808
 2114SOL     OW 6368   2.721   0.956   2.723
 2114SOL    HW1 6369   2.775   0.887   2.771
 2114SOL    HW2 6370   2.689   1.025   2.789
 2115SOL     OW 6371   2.945   0.984   1.949
 2115SOL    HW1 6372   2.922   1.037   1.867
 2115SOL    HW2 6373   3.026   0.928   1.930
 2116SOL     OW 6374   3.723   1.569   2.713
 2116SOL    HW1 6375   3.652   1.557   2.643
 2116SOL    HW2 6376   3.724   1.490   2.773
 2117SOL     OW 6377   2.083   1.314   3.706
 2117SOL    HW1 6378   2.018   1.241   3.685
 2117SOL    HW2 6379   2.087   1.328   3.804
 2118SOL     OW 6380   1.941   1.240   2.515
 2118SOL    HW1 6381   1.940   1.193   2.603
 2118SOL    HW2 6382   2.023   1.212   2.464
 2119SOL     OW 6383   2.534   1.391   3.486
 2119SOL    HW1 6384   2.456   1.341   3.524
 2119SOL    HW2 6385   2.531   1.486   3.517
 2120SOL     OW 6386   3.686   0.192   3.089
 2120SOL    HW1 6387   3.682   0.102   3.133
 2120SOL    HW2 6388   3.689   0.181   2.990
 2121SOL     OW 6389   2.290   0.424   2.382
 2121SOL    HW1 6390   2.320   0.352   2.320
 2121SOL    HW2 6391   2.251   0.384   2.465
 2122SOL     OW 6392   3.567   1.487   2.966
 2122SOL    HW1 6393   3.474   1.462   2.939
 2122SOL    HW2 6394   3.593   1.437   3.048
 2123SOL     OW 6395   2.179   0.547   3.142
 2123SOL    HW1 6396   2.217   0.488   3.214
 2123SOL    HW2 6397   2.219   0.521   3.054
 2124SOL     OW 6398   2.674   1.586   2.549
 2124SOL    HW1 6399   2.706   1.596   2.455
 2124SOL    HW2 6400   2.595   1.524   2.551
 2125SOL     OW 6401   3.286   0.214   2.974
 2125SOL    HW1 6402   3.338   0.149   3.029
 2125SOL    HW2 6403   3.237   0.277   3.035
 2126SOL     OW 6404   2.863   0.034   3.016
 2126SOL    HW1 6405   2.800  -0.038   2.985
 2126SOL    HW2 6406   2.956  -0.002   3.016
 2127SOL     OW 6407   2.632   1.330   2.163
 2127SOL    HW1 6408   2.586   1.243   2.180
 2127SOL    HW2 6409   2.723   1.327   2.204
 2128SOL     OW 6410   2.480   1.567   3.146
 2128SOL    HW1 6411   2.475   1.649   3.203
 2128SOL    HW2 6412   2.569   1.564   3.101
 2129SOL     OW 6413   3.214   0.052   2.030
 2129SOL    HW1 6414   3.249   0.011   1.946
 2129SOL    HW2 6415   3.124   0.014   2.050
 2130SOL     OW 6416   3.162   0.453   2.553
 2130SOL    HW1 6417   3.103   0.533   2.557
 2130SOL    HW2 6418   3.177   0.418   2.646
 2131SOL     OW 6419   3.455   0.221   2.744
 2131SOL    HW1 6420   3.371   0.220   2.798
 2131SOL    HW2 6421   3.457   0.304   2.688
 2132SOL     OW 6422   1.901   1.077   2.162
 2132SOL    HW1 6423   2.000   1.066   2.153
 2132SOL    HW2 6424   1.861   0.991   2.194
 2133SOL     OW 6425   2.737   1.646   2.199
 2133SOL    HW1 6426   2.660   1.611   2.145
 2133SOL    HW2 6427   2.705   1.717   2.261
 2134SOL     OW 6428   2.092   0.628   3.837
 2134SOL    HW1 6429   1.999   0.626   3.874
 2134SOL    HW2 6430   2.093   0.589   3.745
 2135SOL     OW 6431   2.087   0.275   4.720
 2135SOL    HW1 6432   2.122   0.258   4.812
 2135SOL    HW2 6433   1.999   0.230   4.708
 2136SOL     OW 6434   1.881   0.368   4.371
 2136SOL    HW1 6435   1.799   0.411   4.410
 2136SOL    HW2 6436   1.853   0.295   4.308
 2137SOL     OW 6437   2.431   1.275   4.889
 2137SOL    HW1 6438   2.338   1.268   4.852
 2137SOL    HW2 6439   2.442   1.364   4.933
 2138SOL     OW 6440   3.417   1.511   4.427
 2138SOL    HW1 6441   3.360   1.495   4.508
 2138SOL    HW2 6442   3.358   1.521   4.347
 2139SOL     OW 6443   2.997   0.703   4.441
 2139SOL    HW1 6444   3.054   0.781   4.416
 2139SOL    HW2 6445   2.937   0.729   4.517
 2140SOL     OW 6446   3.617   0.607   3.955
 2140SOL    HW1 6447   3.605   0.594   3.856
 2140SOL    HW2 6448   3.587   0.526   4.004
 2141SOL     OW 6449   2.630   1.144   4.747
 2141SOL    HW1 6450   2.552   1.161   4.807
 2141SOL    HW2 6451   2.664   1.231   4.711
 2142SOL     OW 6452   2.547   1.012   4.389
 2142SOL    HW1 6453   2.616   0.996   4.459
 2142SOL    HW2 6454   2.474   1.069   4.427
 2143SOL     OW 6455   2.197   1.435   4.785
 2143SOL    HW1 6456   2.119   1.404   4.732
 2143SOL    HW2 6457   2.255   1.493   4.728
 2144SOL     OW 6458   3.322   1.505   5.063
 2144SOL    HW1 6459   3.346   1.599   5.089
 2144SOL    HW2 6460   3.306   1.451   5.145
 2145SOL     OW 6461   2.300   0.392   5.223
 2145SOL    HW1 6462   2.382   0.336   5.232
 2145SOL    HW2 6463   2.219   0.334   5.227
 2146SOL     OW 6464   3.465   0.447   4.461
 2146SOL    HW1 6465   3.391   0.493   4.411
 2146SOL    HW2 6466   3.516   0.515   4.514
 2147SOL     OW 6467   2.093   1.713   4.207
 2147SOL    HW1 6468   2.127   1.790   4.261
 2147SOL    HW2 6469   2.137   1.713   4.117
 2148SOL     OW 6470   2.092   1.434   4.262
 2148SOL    HW1 6471   2.066   1.530   4.262
 2148SOL    HW2 6472   2.021   1.380   4.307
 2149SOL     OW 6473   2.102   1.091   4.610
 2149SOL    HW1 6474   2.116   1.007   4.662
 2149SOL    HW2 6475   2.047   1.155   4.665
 2150SOL     OW 6476   2.482   1.786   5.163
 2150SOL    HW1 6477   2.390   1.769   5.198
 2150SOL    HW2 6478   2.510   1.878   5.189
 2151SOL     OW 6479   2.468   0.964   3.847
 2151SOL    HW1 6480   2.475   1.048   3.793
 2151SOL    HW2 6481   2.514   0.977   3.935
 2152SOL     OW 6482   3.456   0.114   5.204
 2152SOL    HW1 6483   3.438   0.181   5.132
 2152SOL    HW2 6484   3.453   0.160   5.293
 2153SOL     OW 6485   1.984   0.643   4.287
 2153SOL    HW1 6486   1.939   0.555   4.304
 2153SOL    HW2 6487   1.983   0.697   4.371
 2154SOL     OW 6488   3.704   1.767   4.083
 2154SOL    HW1 6489   3.758   1.738   4.163
 2154SOL    HW2 6490   3.734   1.857   4.054
 2155SOL     OW 6491   1.889   1.596   3.841
 2155SOL    HW1 6492   1.870   1.500   3.862
 2155SOL    HW2 6493   1.856   1.654   3.916
 2156SOL     OW 6494   3.551   0.922   4.336
 2156SOL    HW1 6495   3.646   0.893   4.344
 2156SOL    HW2 6496   3.543   0.987   4.261
 2157SOL     OW 6497   3.503   1.108   4.156
 2157SOL    HW1 6498   3.589   1.110   4.104
 2157SOL    HW2 6499   3.517   1.155   4.244
 2158SOL     OW 6500   2.475   1.365   4.450
 2158SOL    HW1 6501   2.426   1.278   4.459
 2158SOL    HW2 6502   2.452   1.408   4.363
 2159SOL     OW 6503   2.671   0.004   4.226
 2159SOL    HW1 6504   2.711   0.095   4.217
 2159SOL    HW2 6505   2.571   0.012   4.232
 2160SOL     OW 6506   2.059   0.976   4.988
 2160SOL    HW1 6507   2.148   0.931   4.974
 2160SOL    HW2 6508   1.986   0.911   4.969
 2161SOL     OW 6509   3.387   0.999   3.914
 2161SOL    HW1 6510   3.324   0.923   3.927
 2161SOL    HW2 6511   3.435   1.017   4.000
 2162SOL     OW 6512   2.179   0.251   5.525
 2162SOL    HW1 6513   2.250   0.322   5.531
 2162SOL    HW2 6514   2.091   0.290   5.553
 2163SOL     OW 6515   3.328   1.417   4.677
 2163SOL    HW1 6516   3.269   1.423   4.757
 2163SOL    HW2 6517   3.313   1.329   4.631
 2164SOL     OW 6518   3.529   1.714   4.296
 2164SOL    HW1 6519   3.488   1.691   4.208
 2164SOL    HW2 6520   3.511   1.640   4.361
 2165SOL     OW 6521   2.460   0.729   3.994
 2165SOL    HW1 6522   2.484   0.798   3.926
 2165SOL    HW2 6523   2.382   0.762   4.048
 2166SOL     OW 6524   3.143   0.345   4.668
 2166SOL    HW1 6525   3.057   0.295   4.655
 2166SOL    HW2 6526   3.205   0.291   4.724
 2167SOL     OW 6527   3.438   1.662   4.031
 2167SOL    HW1 6528   3.527   1.708   4.034
 2167SOL    HW2 6529   3.417   1.638   3.936
 2168SOL     OW 6530   2.669   0.605   5.189
 2168SOL    HW1 6531   2.622   0.602   5.278
 2168SOL    HW2 6532   2.618   0.550   5.123
 2169SOL     OW 6533   2.853   0.410   4.966
 2169SOL    HW1 6534   2.776   0.444   5.020
 2169SOL    HW2 6535   2.819   0.359   4.887
 2170SOL     OW 6536   2.903   0.701   4.153
 2170SOL    HW1 6537   2.929   0.697   4.249
 2170SOL    HW2 6538   2.818   0.650   4.139
 2171SOL     OW 6539   1.938   0.811   4.513
 2171SOL    HW1 6540   2.037   0.799   4.522
 2171SOL    HW2 6541   1.914   0.906   4.534
 2172SOL     OW 6542   1.992   1.821   5.295
 2172SOL    HW1 6543   1.982   1.806   5.394
 2172SOL    HW2 6544   1.906   1.857   5.259
 2173SOL     OW 6545   2.727   0.348   3.919
 2173SOL    HW1 6546   2.786   0.411   3.870
 2173SOL    HW2 6547   2.746   0.254   3.890
 2174SOL     OW 6548   3.224   1.144   4.269
 2174SOL    HW1 6549   3.307   1.115   4.221
 2174SOL    HW2 6550   3.175   1.211   4.213
 2175SOL     OW 6551   2.412   0.196   4.609
 2175SOL    HW1 6552   2.407   0.191   4.709
 2175SOL    HW2 6553   2.414   0.292   4.580
 2176SOL     OW 6554   2.870   1.456   4.201
 2176SOL    HW1 6555   2.824   1.528   4.149
 2176SOL    HW2 6556   2.866   1.476   4.299
 2177SOL     OW 6557   2.213   1.801   4.577
 2177SOL    HW1 6558   2.263   1.715   4.583
 2177SOL    HW2 6559   2.278   1.878   4.574
 2178SOL     OW 6560   3.657   1.066   4.597
 2178SOL    HW1 6561   3.595   1.051   4.521
 2178SOL    HW2 6562   3.605   1.077   4.682
 2179SOL     OW 6563   2.183   0.943   3.966
 2179SOL    HW1 6564   2.265   0.982   3.924
 2179SOL    HW2 6565   2.156   0.861   3.917
 2180SOL     OW 6566   3.320   0.735   4.452
 2180SOL    HW1 6567   3.315   0.670   4.527
 2180SOL    HW2 6568   3.400   0.794   4.465
 2181SOL     OW 6569   2.973   1.776   3.961
 2181SOL    HW1 6570   2.913   1.714   4.011
 2181SOL    HW2 6571   3.004   1.732   3.876
 2182SOL     OW 6572   2.064   0.285   5.222
 2182SOL    HW1 6573   1.984   0.345   5.209
 2182SOL    HW2 6574   2.054   0.236   5.308
 2183SOL     OW 6575   3.494   1.377   3.805
 2183SOL    HW1 6576   3.462   1.471   3.795
 2183SOL    HW2 6577   3.418   1.314   3.793
 2184SOL     OW 6578   2.326   1.743   4.047
 2184SOL    HW1 6579   2.359   1.782   4.133
 2184SOL    HW2 6580   2.402   1.736   3.982
 2185SOL     OW 6581   3.262   0.107   4.150
 2185SOL    HW1 6582   3.238   0.070   4.060
 2185SOL    HW2 6583   3.361   0.123   4.154
 2186SOL     OW 6584   2.111   1.785   4.965
 2186SOL    HW1 6585   2.168   1.720   5.015
 2186SOL    HW2 6586   2.095   1.752   4.872
 2187SOL     OW 6587   2.802   1.698   4.628
 2187SOL    HW1 6588   2.882   1.641   4.649
 2187SOL    HW2 6589   2.753   1.658   4.551
 2188SOL     OW 6590   2.244   0.700   4.204
 2188SOL    HW1 6591   2.289   0.610   4.201
 2188SOL    HW2 6592   2.150   0.689   4.237
 2189SOL     OW 6593   2.476   0.122   3.841
 2189SOL    HW1 6594   2.574   0.100   3.848
 2189SOL    HW2 6595   2.445   0.105   3.748
 2190SOL     OW 6596   2.750   1.514   4.919
 2190SOL    HW1 6597   2.727   1.489   4.825
 2190SOL    HW2 6598   2.811   1.445   4.958
 2191SOL     OW 6599   2.665   1.402   4.648
 2191SOL    HW1 6600   2.755   1.416   4.606
 2191SOL    HW2 6601   2.594   1.404   4.577
 2192SOL     OW 6602   2.784   0.503   4.623
 2192SOL    HW1 6603   2.759   0.494   4.527
 2192SOL    HW2 6604   2.832   0.421   4.654
 2193SOL     OW 6605   2.401   0.064   4.236
 2193SOL    HW1 6606   2.320   0.065   4.294
 2193SOL    HW2 6607   2.404   0.147   4.181
 2194SOL     OW 6608   3.296   1.188   3.765
 2194SOL    HW1 6609   3.328   1.112   3.822
 2194SOL    HW2 6610   3.204   1.215   3.795
 2195SOL     OW 6611   2.159   0.035   3.895
 2195SOL    HW1 6612   2.208   0.119   3.874
 2195SOL    HW2 6613   2.221  -0.030   3.940
 2196SOL     OW 6614   2.797   0.236   4.204
 2196SOL    HW1 6615   2.749   0.277   4.126
 2196SOL    HW2 6616   2.896   0.234   4.185
 2197SOL     OW 6617   3.089   1.570   4.517
 2197SOL    HW1 6618   3.110   1.644   4.452
 2197SOL    HW2 6619   3.157   1.570   4.590
 2198SOL     OW 6620   2.321   1.152   4.465
 2198SOL    HW1 6621   2.250   1.125   4.530
 2198SOL    HW2 6622   2.295   1.124   4.372
 2199SOL     OW 6623   3.133   1.797   4.315
 2199SOL    HW1 6624   3.177   1.861   4.251
 2199SOL    HW2 6625   3.083   1.849   4.385
 2200SOL     OW 6626   2.894   0.549   3.740
 2200SOL    HW1 6627   2.853   0.631   3.701
 2200SOL    HW2 6628   2.958   0.575   3.813
 2201SOL     OW 6629   1.940   0.556   5.110
 2201SOL    HW1 6630   2.032   0.555   5.069
 2201SOL    HW2 6631   1.934   0.630   5.177
 2202SOL     OW 6632   2.423   0.222   4.871
 2202SOL    HW1 6633   2.461   0.138   4.908
 2202SOL    HW2 6634   2.335   0.241   4.915
 2203SOL     OW 6635   2.728   0.454   4.366
 2203SOL    HW1 6636   2.696   0.526   4.304
 2203SOL    HW2 6637   2.752   0.373   4.313
 2204SOL     OW 6638   2.879   0.039   4.477
 2204SOL    HW1 6639   2.807   0.044   4.408
 2204SOL    HW2 6640   2.855  -0.030   4.546
 2205SOL     OW 6641   3.291   1.173   4.591
 2205SOL    HW1 6642   3.236   1.089   4.584
 2205SOL    HW2 6643   3.317   1.202   4.499
 2206SOL     OW 6644   3.328   0.590   4.716
 2206SOL    HW1 6645   3.298   0.495   4.723
 2206SOL    HW2 6646   3.401   0.606   4.782
 2207SOL     OW 6647   3.719   0.833   4.101
 2207SOL    HW1 6648   3.761   0.769   4.165
 2207SOL    HW2 6649   3.681   0.782   4.023
 2208SOL     OW 6650   2.350   1.385   3.898
 2208SOL    HW1 6651   2.263   1.370   3.945
 2208SOL    HW2 6652   2.333   1.411   3.803
 2209SOL     OW 6653   3.526   1.280   4.381
 2209SOL    HW1 6654   3.625   1.288   4.395
 2209SOL    HW2 6655   3.481   1.364   4.412
 2210SOL     OW 6656   3.252   0.575   3.802
 2210SOL    HW1 6657   3.198   0.554   3.883
 2210SOL    HW2 6658   3.343   0.534   3.811
 2211SOL     OW 6659   2.389   0.256   4.052
 2211SOL    HW1 6660   2.416   0.197   3.977
 2211SOL    HW2 6661   2.389   0.351   4.021
 2212SOL     OW 6662   2.926   1.347   5.064
 2212SOL    HW1 6663   2.846   1.324   5.119
 2212SOL    HW2 6664   3.009   1.321   5.113
 2213SOL     OW 6665   2.973   1.195   4.824
 2213SOL    HW1 6666   2.933   1.239   4.905
 2213SOL    HW2 6667   2.932   1.232   4.741
 2214SOL     OW 6668   3.500   1.099   4.803
 2214SOL    HW1 6669   3.505   1.180   4.862
 2214SOL    HW2 6670   3.414   1.101   4.752
 2215SOL     OW 6671   2.777   0.089   5.126
 2215SOL    HW1 6672   2.802   0.069   5.031
 2215SOL    HW2 6673   2.849   0.145   5.168
 2216SOL     OW 6674   2.567   1.050   4.092
 2216SOL    HW1 6675   2.553   1.057   4.191
 2216SOL    HW2 6676   2.651   0.999   4.074
 2217SOL     OW 6677   2.272   0.813   4.975
 2217SOL    HW1 6678   2.358   0.825   5.025
 2217SOL    HW2 6679   2.230   0.726   5.002
 2218SOL     OW 6680   3.136   0.386   4.986
 2218SOL    HW1 6681   3.157   0.460   5.050
 2218SOL    HW2 6682   3.047   0.403   4.943
 2219SOL     OW 6683   1.926   1.564   5.055
 2219SOL    HW1 6684   1.880   1.646   5.021
 2219SOL    HW2 6685   2.024   1.583   5.064
 2220SOL     OW 6686   2.229   1.100   4.225
 2220SOL    HW1 6687   2.222   1.183   4.169
 2220SOL    HW2 6688   2.233   1.020   4.165
 2221SOL     OW 6689   2.428   0.537   4.589
 2221SOL    HW1 6690   2.440   0.603   4.515
 2221SOL    HW2 6691   2.474   0.571   4.672
 2222SOL     OW 6692   3.114   1.348   4.112
 2222SOL    HW1 6693   3.164   1.425   4.152
 2222SOL    HW2 6694   3.019   1.350   4.144
 2223SOL     OW 6695   3.134   1.445   4.866
 2223SOL    HW1 6696   3.181   1.458   4.953
 2223SOL    HW2 6697   3.068   1.371   4.875
 2224SOL     OW 6698   3.444   0.639   4.196
 2224SOL    HW1 6699   3.413   0.700   4.269
 2224SOL    HW2 6700   3.494   0.691   4.127
 2225SOL     OW 6701   2.216   1.510   5.053
 2225SOL    HW1 6702   2.195   1.466   4.966
 2225SOL    HW2 6703   2.313   1.536   5.056
 2226SOL     OW 6704   2.264   0.751   5.322
 2226SOL    HW1 6705   2.332   0.806   5.275
 2226SOL    HW2 6706   2.304   0.663   5.349
 2227SOL     OW 6707   3.449   0.779   5.394
 2227SOL    HW1 6708   3.357   0.817   5.389
 2227SOL    HW2 6709   3.509   0.826   5.329
 2228SOL     OW 6710   2.435   0.870   4.753
 2228SOL    HW1 6711   2.479   0.959   4.744
 2228SOL    HW2 6712   2.372   0.870   4.830
 2229SOL     OW 6713   3.222   0.862   4.769
 2229SOL    HW1 6714   3.147   0.862   4.703
 2229SOL    HW2 6715   3.259   0.770   4.778
 2230SOL     OW 6716   3.071   0.525   3.999
 2230SOL    HW1 6717   3.084   0.441   4.053
 2230SOL    HW2 6718   3.042   0.599   4.059
 2231SOL     OW 6719   2.169   0.213   4.955
 2231SOL    HW1 6720   2.146   0.250   5.045
 2231SOL    HW2 6721   2.139   0.118   4.949
 2232SOL     OW 6722   1.899   1.310   5.006
 2232SOL    HW1 6723   1.952   1.261   5.074
 2232SOL    HW2 6724   1.921   1.408   5.011
 2233SOL     OW 6725   2.594   0.634   4.788
 2233SOL    HW1 6726   2.653   0.608   4.712
 2233SOL    HW2 6727   2.566   0.730   4.777
 2234SOL     OW 6728   2.169   0.063   4.342
 2234SOL    HW1 6729   2.158   0.157   4.375
 2234SOL    HW2 6730   2.164   0.000   4.419
 2235SOL     OW 6731   3.484   0.367   4.098
 2235SOL    HW1 6732   3.486   0.291   4.162
 2235SOL    HW2 6733   3.436   0.444   4.138
 2236SOL     OW 6734   2.885   0.766   4.690
 2236SOL    HW1 6735   2.900   0.787   4.786
 2236SOL    HW2 6736   2.855   0.671   4.681
 2237SOL     OW 6737   2.842   1.573   5.424
 2237SOL    HW1 6738   2.822   1.617   5.336
 2237SOL    HW2 6739   2.881   1.482   5.408
 2238SOL     OW 6740   3.402   0.274   3.849
 2238SOL    HW1 6741   3.341   0.199   3.872
 2238SOL    HW2 6742   3.424   0.326   3.932
 2239SOL     OW 6743   3.165   0.838   3.766
 2239SOL    HW1 6744   3.199   0.745   3.781
 2239SOL    HW2 6745   3.183   0.865   3.671
 2240SOL     OW 6746   2.930   1.333   4.573
 2240SOL    HW1 6747   2.937   1.249   4.518
 2240SOL    HW2 6748   2.992   1.402   4.537
 2241SOL     OW 6749   2.181   0.810   4.673
 2241SOL    HW1 6750   2.274   0.846   4.678
 2241SOL    HW2 6751   2.175   0.725   4.725
 2242SOL     OW 6752   2.201   0.509   4.730
 2242SOL    HW1 6753   2.149   0.426   4.713
 2242SOL    HW2 6754   2.278   0.514   4.666
 2243SOL     OW 6755   3.000   0.380   5.402
 2243SOL    HW1 6756   2.955   0.443   5.466
 2243SOL    HW2 6757   3.093   0.411   5.385
 2244SOL     OW 6758   3.022   0.207   5.201
 2244SOL    HW1 6759   3.022   0.271   5.278
 2244SOL    HW2 6760   3.050   0.255   5.118
 2245SOL     OW 6761   1.870   1.326   3.924
 2245SOL    HW1 6762   1.777   1.347   3.893
 2245SOL    HW2 6763   1.880   1.227   3.937
 2246SOL     OW 6764   1.950   1.801   4.651
 2246SOL    HW1 6765   1.908   1.715   4.624
 2246SOL    HW2 6766   2.044   1.804   4.617
 2247SOL     OW 6767   2.366   1.568   4.634
 2247SOL    HW1 6768   2.432   1.642   4.643
 2247SOL    HW2 6769   2.410   1.489   4.592
 2248SOL     OW 6770   2.864   0.796   4.962
 2248SOL    HW1 6771   2.905   0.764   5.048
 2248SOL    HW2 6772   2.768   0.769   4.959
 2249SOL     OW 6773   1.902   0.544   4.838
 2249SOL    HW1 6774   1.987   0.511   4.797
 2249SOL    HW2 6775   1.915   0.559   4.936
 2250SOL     OW 6776   2.677   0.572   4.049
 2250SOL    HW1 6777   2.684   0.483   4.003
 2250SOL    HW2 6778   2.583   0.606   4.041
 2251SOL     OW 6779   3.519   0.604   4.930
 2251SOL    HW1 6780   3.481   0.535   4.992
 2251SOL    HW2 6781   3.601   0.568   4.886
 2252SOL     OW 6782   2.533   0.464   4.993
 2252SOL    HW1 6783   2.499   0.375   4.963
 2252SOL    HW2 6784   2.559   0.518   4.913
 2253SOL     OW 6785   2.792   1.678   5.189
 2253SOL    HW1 6786   2.768   1.660   5.094
 2253SOL    HW2 6787   2.822   1.772   5.199
 2254SOL     OW 6788   2.335   0.500   3.915
 2254SOL    HW1 6789   2.396   0.580   3.919
 2254SOL    HW2 6790   2.240   0.531   3.922
 2255SOL     OW 6791   2.021   1.137   5.190
 2255SOL    HW1 6792   2.043   1.076   5.266
 2255SOL    HW2 6793   2.031   1.088   5.104
 2256SOL     OW 6794   3.209   1.059   4.958
 2256SOL    HW1 6795   3.233   0.996   4.884
 2256SOL    HW2 6796   3.119   1.099   4.940
 2257SOL     OW 6797   3.164   0.855   4.033
 2257SOL    HW1 6798   3.078   0.824   4.075
 2257SOL    HW2 6799   3.160   0.841   3.934
 2258SOL     OW 6800   3.621   1.747   4.878
 2258SOL    HW1 6801   3.682   1.777   4.805
 2258SOL    HW2 6802   3.583   1.658   4.856
 2259SOL     OW 6803   3.114   1.731   4.852
 2259SOL    HW1 6804   3.198   1.736   4.798
 2259SOL    HW2 6805   3.091   1.635   4.870
 2260SOL     OW 6806   1.945   1.258   4.746
 2260SOL    HW1 6807   1.940   1.257   4.846
 2260SOL    HW2 6808   1.862   1.217   4.708
 2261SOL     OW 6809   3.588   0.135   4.247
 2261SOL    HW1 6810   3.661   0.118   4.180
 2261SOL    HW2 6811   3.557   0.048   4.285
 2262SOL     OW 6812   3.250   1.573   4.201
 2262SOL    HW1 6813   3.317   1.585   4.127
 2262SOL    HW2 6814   3.210   1.662   4.224
 2263SOL     OW 6815   3.142   0.927   4.396
 2263SOL    HW1 6816   3.202   0.846   4.398
 2263SOL    HW2 6817   3.182   0.996   4.336
 2264SOL     OW 6818   2.534   1.616   3.878
 2264SOL    HW1 6819   2.543   1.626   3.779
 2264SOL    HW2 6820   2.494   1.527   3.899
 2265SOL     OW 6821   3.512   1.720   5.118
 2265SOL    HW1 6822   3.565   1.730   5.034
 2265SOL    HW2 6823   3.485   1.810   5.152
 2266SOL     OW 6824   3.703   0.175   4.687
 2266SOL    HW1 6825   3.742   0.090   4.651
 2266SOL    HW2 6826   3.605   0.177   4.668
 2267SOL     OW 6827   2.125   0.326   4.444
 2267SOL    HW1 6828   2.046   0.377   4.410
 2267SOL    HW2 6829   2.116   0.311   4.542
 2268SOL     OW 6830   3.056   1.612   3.755
 2268SOL    HW1 6831   3.062   1.519   3.792
 2268SOL    HW2 6832   2.997   1.612   3.675
 2269SOL     OW 6833   2.684   1.002   5.096
 2269SOL    HW1 6834   2.724   1.001   5.004
 2269SOL    HW2 6835   2.694   1.094   5.136
 2270SOL     OW 6836   2.778   0.910   4.015
 2270SOL    HW1 6837   2.841   0.948   3.947
 2270SOL    HW2 6838   2.818   0.827   4.054
 2271SOL     OW 6839   3.366   1.607   3.768
 2271SOL    HW1 6840   3.274   1.644   3.775
 2271SOL    HW2 6841   3.404   1.627   3.678
 2272SOL     OW 6842   2.234   1.288   5.214
 2272SOL    HW1 6843   2.221   1.381   5.180
 2272SOL    HW2 6844   2.150   1.236   5.201
 2273SOL     OW 6845   3.476   1.292   5.013
 2273SOL    HW1 6846   3.536   1.295   5.093
 2273SOL    HW2 6847   3.401   1.356   5.026
 2274SOL     OW 6848   2.901   1.098   4.420
 2274SOL    HW1 6849   2.831   1.051   4.474
 2274SOL    HW2 6850   2.960   1.030   4.377
 2275SOL     OW 6851   2.876   0.236   4.695
 2275SOL    HW1 6852   2.868   0.200   4.602
 2275SOL    HW2 6853   2.874   0.160   4.760
 2276SOL     OW 6854   2.452   1.487   4.215
 2276SOL    HW1 6855   2.494   1.429   4.145
 2276SOL    HW2 6856   2.408   1.566   4.171
 2277SOL     OW 6857   3.571   0.385   5.105
 2277SOL    HW1 6858   3.644   0.454   5.109
 2277SOL    HW2 6859   3.599   0.310   5.046
 2278SOL     OW 6860   2.117   1.348   4.014
 2278SOL    HW1 6861   2.021   1.349   3.987
 2278SOL    HW2 6862   2.129   1.401   4.098
 2279SOL     OW 6863   1.937   0.345   3.757
 2279SOL    HW1 6864   1.845   0.317   3.728
 2279SOL    HW2 6865   1.968   0.422   3.701
 2280SOL     OW 6866   3.302   0.856   5.122
 2280SOL    HW1 6867   3.245   0.908   5.059
 2280SOL    HW2 6868   3.398   0.868   5.098
 2281SOL     OW 6869   1.934   0.166   4.042
 2281SOL    HW1 6870   1.917   0.249   3.988
 2281SOL    HW2 6871   2.024   0.129   4.020
 2282SOL     OW 6872   3.045   1.335   3.843
 2282SOL    HW1 6873   2.946   1.324   3.845
 2282SOL    HW2 6874   3.079   1.350   3.936
 2283SOL     OW 6875   2.475   0.842   5.155
 2283SOL    HW1 6876   2.531   0.923   5.138
 2283SOL    HW2 6877   2.534   0.762   5.158
 2284SOL     OW 6878   3.355   1.767   4.683
 2284SOL    HW1 6879   3.388   1.831   4.614
 2284SOL    HW2 6880   3.421   1.761   4.758
 2285SOL     OW 6881   2.252   1.741   5.284
 2285SOL    HW1 6882   2.161   1.782   5.282
 2285SOL    HW2 6883   2.245   1.647   5.316
 2286SOL     OW 6884   3.536   0.883   4.978
 2286SOL    HW1 6885   3.509   0.794   4.941
 2286SOL    HW2 6886   3.537   0.951   4.905
 2287SOL     OW 6887   3.087   0.325   4.173
 2287SOL    HW1 6888   3.152   0.251   4.162
 2287SOL    HW2 6889   3.107   0.375   4.257
 2288SOL     OW 6890   2.456   0.745   4.376
 2288SOL    HW1 6891   2.506   0.830   4.357
 2288SOL    HW2 6892   2.368   0.747   4.328
 2289SOL     OW 6893   3.639   0.342   5.366
 2289SOL    HW1 6894   3.622   0.373   5.272
 2289SOL    HW2 6895   3.555   0.305   5.404
 2290SOL     OW 6896   3.592   0.934   5.241
 2290SOL    HW1 6897   3.630   1.025   5.256
 2290SOL    HW2 6898   3.584   0.917   5.142
 2291SOL     OW 6899   2.721   1.374   3.740
 2291SOL    HW1 6900   2.675   1.389   3.828
 2291SOL    HW2 6901   2.765   1.459   3.710
 2292SOL     OW 6902   2.523   1.790   4.677
 2292SOL    HW1 6903   2.477   1.878   4.664
 2292SOL    HW2 6904   2.622   1.802   4.670
 2293SOL     OW 6905   2.721   0.956   4.585
 2293SOL    HW1 6906   2.775   0.887   4.633
 2293SOL    HW2 6907   2.689   1.025   4.651
 2294SOL     OW 6908   2.945   0.984   3.811
 2294SOL    HW1 6909   2.922   1.037   3.729
 2294SOL    HW2 6910   3.026   0.928   3.792
 2295SOL     OW 6911   3.723   1.569   4.575
 2295SOL    HW1 6912   3.652   1.557   4.505
 2295SOL    HW2 6913   3.724   1.490   4.635
 2296SOL     OW 6914   1.941   1.240   4.377
 2296SOL    HW1 6915   1.940   1.193   4.465
 2296SOL    HW2 6916   2.023   1.212   4.326
 2297SOL     OW 6917   3.686   0.192   4.951
 2297SOL    HW1 6918   3.682   0.102   4.995
 2297SOL    HW2 6919   3.689   0.181   4.852
 2298SOL     OW 6920   2.290   0.424   4.244
 2298SOL    HW1 6921   2.320   0.352   4.182
 2298SOL    HW2 6922   2.251   0.384   4.327
 2299SOL     OW 6923   3.567   1.487   4.828
 2299SOL    HW1 6924   3.474   1.462   4.801
 2299SOL    HW2 6925   3.593   1.437   4.910
 2300SOL     OW 6926   2.179   0.547   5.004
 2300SOL    HW1 6927   2.217   0.488   5.076
 2300SOL    HW2 6928   2.219   0.521   4.916
 2301SOL     OW 6929   2.674   1.586   4.411
 2301SOL    HW1 6930   2.706   1.596   4.317
 2301SOL    HW2 6931   2.595   1.524   4.413
 2302SOL     OW 6932   3.286   0.214   4.836
 2302SOL    HW1 6933   3.338   0.149   4.891
 2302SOL    HW2 6934   3.237   0.277   4.897
 2303SOL     OW 6935   2.863   0.034   4.878
 2303SOL    HW1 6936   2.800  -0.038   4.847
 2303SOL    HW2 6937   2.956  -0.002   4.878
 2304SOL     OW 6938   2.632   1.330   4.025
 2304SOL    HW1 6939   2.586   1.243   4.042
 2304SOL    HW2 6940   2.723   1.327   4.066
 2305SOL     OW 6941   2.480   1.567   5.008
 2305SOL    HW1 6942   2.475   1.649   5.065
 2305SOL    HW2 6943   2.569   1.564   4.963
 2306SOL     OW 6944   3.214   0.052   3.892
 2306SOL    HW1 6945   3.249   0.011   3.808
 2306SOL    HW2 6946   3.124   0.014   3.912
 2307SOL     OW 6947   3.162   0.453   4.415
 2307SOL    HW1 6948   3.103   0.533   4.419
 2307SOL    HW2 6949   3.177   0.418   4.508
 2308SOL     OW 6950   3.455   0.221   4.606
 2308SOL    HW1 6951   3.371   0.220   4.660
 2308SOL    HW2 6952   3.457   0.304   4.550
 2309SOL     OW 6953   1.901   1.077   4.024
 2309SOL    HW1 6954   2.000   1.066   4.015
 2309SOL    HW2 6955   1.861   0.991   4.056
 2310SOL     OW 6956   2.737   1.646   4.061
 2310SOL    HW1 6957   2.660   1.611   4.007
 2310SOL    HW2 6958   2.705   1.717   4.123
 2311SOL     OW 6959   2.092   2.490   0.113
 2311SOL    HW1 6960   1.999   2.488   0.150
 2311SOL    HW2 6961   2.093   2.451   0.021
 2312SOL     OW 6962   2.087   2.137   0.996
 2312SOL    HW1 6963   2.122   2.120   1.088
 2312SOL    HW2 6964   1.999   2.092   0.984
 2313SOL     OW 6965   1.881   2.230   0.647
 2313SOL    HW1 6966   1.799   2.273   0.686
 2313SOL    HW2 6967   1.853   2.157   0.584
 2314SOL     OW 6968   2.431   3.137   1.165
 2314SOL    HW1 6969   2.338   3.130   1.128
 2314SOL    HW2 6970   2.442   3.226   1.209
 2315SOL     OW 6971   3.417   3.373   0.703
 2315SOL    HW1 6972   3.360   3.357   0.784
 2315SOL    HW2 6973   3.358   3.383   0.623
 2316SOL     OW 6974   2.997   2.565   0.717
 2316SOL    HW1 6975   3.054   2.643   0.692
 2316SOL    HW2 6976   2.937   2.591   0.793
 2317SOL     OW 6977   3.617   2.469   0.231
 2317SOL    HW1 6978   3.605   2.456   0.132
 2317SOL    HW2 6979   3.587   2.388   0.280
 2318SOL     OW 6980   2.630   3.006   1.023
 2318SOL    HW1 6981   2.552   3.023   1.083
 2318SOL    HW2 6982   2.664   3.093   0.987
 2319SOL     OW 6983   2.712   2.660   1.823
 2319SOL    HW1 6984   2.708   2.736   1.888
 2319SOL    HW2 6985   2.734   2.696   1.732
 2320SOL     OW 6986   2.547   2.874   0.665
 2320SOL    HW1 6987   2.616   2.858   0.735
 2320SOL    HW2 6988   2.474   2.931   0.703
 2321SOL     OW 6989   2.548   3.023   1.803
 2321SOL    HW1 6990   2.608   3.102   1.817
 2321SOL    HW2 6991   2.462   3.054   1.762
 2322SOL     OW 6992   2.197   3.297   1.061
 2322SOL    HW1 6993   2.119   3.266   1.008
 2322SOL    HW2 6994   2.255   3.355   1.004
 2323SOL     OW 6995   3.322   3.367   1.339
 2323SOL    HW1 6996   3.346   3.461   1.365
 2323SOL    HW2 6997   3.306   3.313   1.421
 2324SOL     OW 6998   2.300   2.254   1.499
 2324SOL    HW1 6999   2.382   2.198   1.508
 2324SOL    HW2 7000   2.219   2.196   1.503
 2325SOL     OW 7001   3.465   2.309   0.737
 2325SOL    HW1 7002   3.391   2.355   0.687
 2325SOL    HW2 7003   3.516   2.377   0.790
 2326SOL     OW 7004   2.093   3.575   0.483
 2326SOL    HW1 7005   2.127   3.652   0.537
 2326SOL    HW2 7006   2.137   3.575   0.393
 2327SOL     OW 7007   2.989   3.203   1.690
 2327SOL    HW1 7008   3.036   3.203   1.778
 2327SOL    HW2 7009   2.941   3.116   1.679
 2328SOL     OW 7010   2.092   3.296   0.538
 2328SOL    HW1 7011   2.066   3.392   0.538
 2328SOL    HW2 7012   2.021   3.242   0.583
 2329SOL     OW 7013   2.102   2.953   0.886
 2329SOL    HW1 7014   2.116   2.869   0.938
 2329SOL    HW2 7015   2.047   3.017   0.941
 2330SOL     OW 7016   2.482   3.648   1.439
 2330SOL    HW1 7017   2.390   3.631   1.474
 2330SOL    HW2 7018   2.510   3.740   1.465
 2331SOL     OW 7019   2.468   2.826   0.123
 2331SOL    HW1 7020   2.475   2.910   0.069
 2331SOL    HW2 7021   2.514   2.839   0.211
 2332SOL     OW 7022   3.456   1.976   1.480
 2332SOL    HW1 7023   3.438   2.043   1.408
 2332SOL    HW2 7024   3.453   2.022   1.569
 2333SOL     OW 7025   1.984   2.505   0.563
 2333SOL    HW1 7026   1.939   2.417   0.580
 2333SOL    HW2 7027   1.983   2.559   0.647
 2334SOL     OW 7028   3.704   3.629   0.359
 2334SOL    HW1 7029   3.758   3.600   0.439
 2334SOL    HW2 7030   3.734   3.719   0.330
 2335SOL     OW 7031   1.889   3.458   0.117
 2335SOL    HW1 7032   1.870   3.362   0.138
 2335SOL    HW2 7033   1.856   3.516   0.192
 2336SOL     OW 7034   3.551   2.784   0.612
 2336SOL    HW1 7035   3.646   2.755   0.620
 2336SOL    HW2 7036   3.543   2.849   0.537
 2337SOL     OW 7037   3.503   2.970   0.432
 2337SOL    HW1 7038   3.589   2.972   0.380
 2337SOL    HW2 7039   3.517   3.017   0.520
 2338SOL     OW 7040   1.975   2.599   1.597
 2338SOL    HW1 7041   2.063   2.586   1.642
 2338SOL    HW2 7042   1.962   2.696   1.575
 2339SOL     OW 7043   2.475   3.227   0.726
 2339SOL    HW1 7044   2.426   3.140   0.735
 2339SOL    HW2 7045   2.452   3.270   0.639
 2340SOL     OW 7046   3.155   3.090   1.423
 2340SOL    HW1 7047   3.192   3.017   1.365
 2340SOL    HW2 7048   3.207   3.095   1.508
 2341SOL     OW 7049   2.671   1.866   0.502
 2341SOL    HW1 7050   2.711   1.957   0.493
 2341SOL    HW2 7051   2.571   1.874   0.508
 2342SOL     OW 7052   2.059   2.838   1.264
 2342SOL    HW1 7053   2.148   2.793   1.250
 2342SOL    HW2 7054   1.986   2.773   1.245
 2343SOL     OW 7055   3.387   2.861   0.190
 2343SOL    HW1 7056   3.324   2.785   0.203
 2343SOL    HW2 7057   3.435   2.879   0.276
 2344SOL     OW 7058   3.049   3.654   1.616
 2344SOL    HW1 7059   3.073   3.714   1.540
 2344SOL    HW2 7060   3.056   3.559   1.586
 2345SOL     OW 7061   2.179   2.113   1.801
 2345SOL    HW1 7062   2.250   2.184   1.807
 2345SOL    HW2 7063   2.091   2.152   1.829
 2346SOL     OW 7064   3.328   3.279   0.953
 2346SOL    HW1 7065   3.269   3.285   1.033
 2346SOL    HW2 7066   3.313   3.191   0.907
 2347SOL     OW 7067   3.529   3.576   0.572
 2347SOL    HW1 7068   3.488   3.553   0.484
 2347SOL    HW2 7069   3.511   3.502   0.637
 2348SOL     OW 7070   2.460   2.591   0.270
 2348SOL    HW1 7071   2.484   2.660   0.202
 2348SOL    HW2 7072   2.382   2.624   0.324
 2349SOL     OW 7073   3.143   2.207   0.944
 2349SOL    HW1 7074   3.057   2.157   0.931
 2349SOL    HW2 7075   3.205   2.153   1.000
 2350SOL     OW 7076   3.438   3.524   0.307
 2350SOL    HW1 7077   3.527   3.570   0.310
 2350SOL    HW2 7078   3.417   3.500   0.212
 2351SOL     OW 7079   2.669   2.467   1.465
 2351SOL    HW1 7080   2.622   2.464   1.554
 2351SOL    HW2 7081   2.618   2.412   1.399
 2352SOL     OW 7082   3.256   2.331   1.674
 2352SOL    HW1 7083   3.236   2.374   1.762
 2352SOL    HW2 7084   3.334   2.269   1.683
 2353SOL     OW 7085   2.835   2.752   1.572
 2353SOL    HW1 7086   2.881   2.668   1.543
 2353SOL    HW2 7087   2.779   2.786   1.497
 2354SOL     OW 7088   2.853   2.272   1.242
 2354SOL    HW1 7089   2.776   2.306   1.296
 2354SOL    HW2 7090   2.819   2.221   1.163
 2355SOL     OW 7091   2.903   2.563   0.429
 2355SOL    HW1 7092   2.929   2.559   0.525
 2355SOL    HW2 7093   2.818   2.512   0.415
 2356SOL     OW 7094   1.938   2.673   0.789
 2356SOL    HW1 7095   2.037   2.661   0.798
 2356SOL    HW2 7096   1.914   2.768   0.810
 2357SOL     OW 7097   1.992   3.683   1.571
 2357SOL    HW1 7098   1.982   3.668   1.670
 2357SOL    HW2 7099   1.906   3.719   1.535
 2358SOL     OW 7100   2.727   2.210   0.195
 2358SOL    HW1 7101   2.786   2.273   0.146
 2358SOL    HW2 7102   2.746   2.116   0.166
 2359SOL     OW 7103   3.581   2.447   1.831
 2359SOL    HW1 7104   3.555   2.536   1.795
 2359SOL    HW2 7105   3.579   2.379   1.758
 2360SOL     OW 7106   3.224   3.006   0.545
 2360SOL    HW1 7107   3.307   2.977   0.497
 2360SOL    HW2 7108   3.175   3.073   0.489
 2361SOL     OW 7109   2.412   2.058   0.885
 2361SOL    HW1 7110   2.407   2.053   0.985
 2361SOL    HW2 7111   2.414   2.154   0.856
 2362SOL     OW 7112   2.870   3.318   0.477
 2362SOL    HW1 7113   2.824   3.390   0.425
 2362SOL    HW2 7114   2.866   3.338   0.575
 2363SOL     OW 7115   2.213   3.663   0.853
 2363SOL    HW1 7116   2.263   3.577   0.859
 2363SOL    HW2 7117   2.278   3.740   0.850
 2364SOL     OW 7118   3.657   2.928   0.873
 2364SOL    HW1 7119   3.595   2.913   0.797
 2364SOL    HW2 7120   3.605   2.939   0.958
 2365SOL     OW 7121   3.089   3.412   1.506
 2365SOL    HW1 7122   3.095   3.335   1.570
 2365SOL    HW2 7123   3.037   3.386   1.426
 2366SOL     OW 7124   2.183   2.805   0.242
 2366SOL    HW1 7125   2.265   2.844   0.200
 2366SOL    HW2 7126   2.156   2.723   0.193
 2367SOL     OW 7127   3.320   2.597   0.728
 2367SOL    HW1 7128   3.315   2.532   0.803
 2367SOL    HW2 7129   3.400   2.656   0.741
 2368SOL     OW 7130   2.323   3.128   1.727
 2368SOL    HW1 7131   2.273   3.129   1.641
 2368SOL    HW2 7132   2.260   3.110   1.803
 2369SOL     OW 7133   2.973   3.638   0.237
 2369SOL    HW1 7134   2.913   3.576   0.287
 2369SOL    HW2 7135   3.004   3.594   0.152
 2370SOL     OW 7136   2.064   2.147   1.498
 2370SOL    HW1 7137   1.984   2.207   1.485
 2370SOL    HW2 7138   2.054   2.098   1.584
 2371SOL     OW 7139   3.494   3.239   0.081
 2371SOL    HW1 7140   3.462   3.333   0.071
 2371SOL    HW2 7141   3.418   3.176   0.069
 2372SOL     OW 7142   2.326   3.605   0.323
 2372SOL    HW1 7143   2.359   3.644   0.409
 2372SOL    HW2 7144   2.402   3.598   0.258
 2373SOL     OW 7145   3.262   1.969   0.426
 2373SOL    HW1 7146   3.238   1.932   0.336
 2373SOL    HW2 7147   3.361   1.985   0.430
 2374SOL     OW 7148   2.111   3.647   1.241
 2374SOL    HW1 7149   2.168   3.582   1.291
 2374SOL    HW2 7150   2.095   3.614   1.148
 2375SOL     OW 7151   2.802   3.560   0.904
 2375SOL    HW1 7152   2.882   3.503   0.925
 2375SOL    HW2 7153   2.753   3.520   0.827
 2376SOL     OW 7154   2.244   2.562   0.480
 2376SOL    HW1 7155   2.289   2.472   0.477
 2376SOL    HW2 7156   2.150   2.551   0.513
 2377SOL     OW 7157   3.409   2.084   1.729
 2377SOL    HW1 7158   3.404   2.121   1.821
 2377SOL    HW2 7159   3.337   2.015   1.717
 2378SOL     OW 7160   2.476   1.984   0.117
 2378SOL    HW1 7161   2.574   1.962   0.124
 2378SOL    HW2 7162   2.445   1.967   0.024
 2379SOL     OW 7163   2.643   2.126   1.749
 2379SOL    HW1 7164   2.710   2.065   1.792
 2379SOL    HW2 7165   2.570   2.145   1.814
 2380SOL     OW 7166   2.750   3.376   1.195
 2380SOL    HW1 7167   2.727   3.351   1.101
 2380SOL    HW2 7168   2.811   3.307   1.234
 2381SOL     OW 7169   3.213   2.452   1.433
 2381SOL    HW1 7170   3.241   2.409   1.518
 2381SOL    HW2 7171   3.238   2.548   1.434
 2382SOL     OW 7172   2.665   3.264   0.924
 2382SOL    HW1 7173   2.755   3.278   0.882
 2382SOL    HW2 7174   2.594   3.266   0.853
 2383SOL     OW 7175   2.784   2.365   0.899
 2383SOL    HW1 7176   2.759   2.356   0.803
 2383SOL    HW2 7177   2.832   2.283   0.930
 2384SOL     OW 7178   2.401   1.926   0.512
 2384SOL    HW1 7179   2.320   1.927   0.570
 2384SOL    HW2 7180   2.404   2.009   0.457
 2385SOL     OW 7181   3.296   3.050   0.041
 2385SOL    HW1 7182   3.328   2.974   0.098
 2385SOL    HW2 7183   3.204   3.077   0.071
 2386SOL     OW 7184   2.159   1.897   0.171
 2386SOL    HW1 7185   2.208   1.981   0.150
 2386SOL    HW2 7186   2.221   1.832   0.216
 2387SOL     OW 7187   2.797   2.098   0.480
 2387SOL    HW1 7188   2.749   2.139   0.402
 2387SOL    HW2 7189   2.896   2.096   0.461
 2388SOL     OW 7190   2.938   2.545   1.464
 2388SOL    HW1 7191   2.858   2.484   1.467
 2388SOL    HW2 7192   3.019   2.492   1.440
 2389SOL     OW 7193   3.089   3.432   0.793
 2389SOL    HW1 7194   3.110   3.506   0.728
 2389SOL    HW2 7195   3.157   3.432   0.866
 2390SOL     OW 7196   2.321   3.014   0.741
 2390SOL    HW1 7197   2.250   2.987   0.806
 2390SOL    HW2 7198   2.295   2.986   0.648
 2391SOL     OW 7199   3.133   3.659   0.591
 2391SOL    HW1 7200   3.177   3.723   0.527
 2391SOL    HW2 7201   3.083   3.711   0.661
 2392SOL     OW 7202   2.894   2.411   0.016
 2392SOL    HW1 7203   2.853   2.493  -0.023
 2392SOL    HW2 7204   2.958   2.437   0.089
 2393SOL     OW 7205   1.940   2.418   1.386
 2393SOL    HW1 7206   2.032   2.417   1.345
 2393SOL    HW2 7207   1.934   2.492   1.453
 2394SOL     OW 7208   2.423   2.084   1.147
 2394SOL    HW1 7209   2.461   2.000   1.184
 2394SOL    HW2 7210   2.335   2.103   1.191
 2395SOL     OW 7211   2.728   2.316   0.642
 2395SOL    HW1 7212   2.696   2.388   0.580
 2395SOL    HW2 7213   2.752   2.235   0.589
 2396SOL     OW 7214   2.879   1.901   0.753
 2396SOL    HW1 7215   2.807   1.906   0.684
 2396SOL    HW2 7216   2.855   1.832   0.822
 2397SOL     OW 7217   3.291   3.035   0.867
 2397SOL    HW1 7218   3.236   2.951   0.860
 2397SOL    HW2 7219   3.317   3.064   0.775
 2398SOL     OW 7220   3.328   2.452   0.992
 2398SOL    HW1 7221   3.298   2.357   0.999
 2398SOL    HW2 7222   3.401   2.468   1.058
 2399SOL     OW 7223   3.719   2.695   0.377
 2399SOL    HW1 7224   3.761   2.631   0.441
 2399SOL    HW2 7225   3.681   2.644   0.299
 2400SOL     OW 7226   2.350   3.247   0.174
 2400SOL    HW1 7227   2.263   3.232   0.221
 2400SOL    HW2 7228   2.333   3.273   0.079
 2401SOL     OW 7229   3.526   3.142   0.657
 2401SOL    HW1 7230   3.625   3.150   0.671
 2401SOL    HW2 7231   3.481   3.226   0.688
 2402SOL     OW 7232   3.252   2.437   0.078
 2402SOL    HW1 7233   3.198   2.416   0.159
 2402SOL    HW2 7234   3.343   2.396   0.087
 2403SOL     OW 7235   2.389   2.118   0.328
 2403SOL    HW1 7236   2.416   2.059   0.253
 2403SOL    HW2 7237   2.389   2.213   0.297
 2404SOL     OW 7238   3.616   3.085   1.588
 2404SOL    HW1 7239   3.707   3.046   1.575
 2404SOL    HW2 7240   3.624   3.181   1.612
 2405SOL     OW 7241   2.926   3.209   1.340
 2405SOL    HW1 7242   2.846   3.186   1.395
 2405SOL    HW2 7243   3.009   3.183   1.389
 2406SOL     OW 7244   3.454   3.491   1.625
 2406SOL    HW1 7245   3.481   3.525   1.535
 2406SOL    HW2 7246   3.533   3.453   1.671
 2407SOL     OW 7247   2.973   3.057   1.100
 2407SOL    HW1 7248   2.933   3.101   1.181
 2407SOL    HW2 7249   2.932   3.094   1.017
 2408SOL     OW 7250   3.500   2.961   1.079
 2408SOL    HW1 7251   3.505   3.042   1.138
 2408SOL    HW2 7252   3.414   2.963   1.028
 2409SOL     OW 7253   2.777   1.951   1.402
 2409SOL    HW1 7254   2.802   1.931   1.307
 2409SOL    HW2 7255   2.849   2.007   1.444
 2410SOL     OW 7256   2.842   2.978   1.719
 2410SOL    HW1 7257   2.743   2.984   1.729
 2410SOL    HW2 7258   2.865   2.898   1.663
 2411SOL     OW 7259   2.567   2.912   0.368
 2411SOL    HW1 7260   2.553   2.919   0.467
 2411SOL    HW2 7261   2.651   2.861   0.350
 2412SOL     OW 7262   2.272   2.675   1.251
 2412SOL    HW1 7263   2.358   2.687   1.301
 2412SOL    HW2 7264   2.230   2.588   1.278
 2413SOL     OW 7265   3.136   2.248   1.262
 2413SOL    HW1 7266   3.157   2.322   1.326
 2413SOL    HW2 7267   3.047   2.265   1.219
 2414SOL     OW 7268   1.926   3.426   1.331
 2414SOL    HW1 7269   1.880   3.508   1.297
 2414SOL    HW2 7270   2.024   3.445   1.340
 2415SOL     OW 7271   2.229   2.962   0.501
 2415SOL    HW1 7272   2.222   3.045   0.445
 2415SOL    HW2 7273   2.233   2.882   0.441
 2416SOL     OW 7274   2.428   2.399   0.865
 2416SOL    HW1 7275   2.440   2.465   0.791
 2416SOL    HW2 7276   2.474   2.433   0.948
 2417SOL     OW 7277   3.114   3.210   0.388
 2417SOL    HW1 7278   3.164   3.287   0.428
 2417SOL    HW2 7279   3.019   3.212   0.420
 2418SOL     OW 7280   3.134   3.307   1.142
 2418SOL    HW1 7281   3.181   3.320   1.229
 2418SOL    HW2 7282   3.068   3.233   1.151
 2419SOL     OW 7283   3.444   2.501   0.472
 2419SOL    HW1 7284   3.413   2.562   0.545
 2419SOL    HW2 7285   3.494   2.553   0.403
 2420SOL     OW 7286   2.216   3.372   1.329
 2420SOL    HW1 7287   2.195   3.328   1.242
 2420SOL    HW2 7288   2.313   3.398   1.332
 2421SOL     OW 7289   2.264   2.613   1.598
 2421SOL    HW1 7290   2.332   2.668   1.551
 2421SOL    HW2 7291   2.304   2.525   1.625
 2422SOL     OW 7292   3.449   2.641   1.670
 2422SOL    HW1 7293   3.357   2.679   1.665
 2422SOL    HW2 7294   3.509   2.688   1.605
 2423SOL     OW 7295   2.875   1.967   1.770
 2423SOL    HW1 7296   2.881   2.052   1.718
 2423SOL    HW2 7297   2.907   1.891   1.713
 2424SOL     OW 7298   2.366   1.912   1.740
 2424SOL    HW1 7299   2.324   1.855   1.670
 2424SOL    HW2 7300   2.300   1.981   1.772
 2425SOL     OW 7301   2.435   2.732   1.029
 2425SOL    HW1 7302   2.479   2.821   1.020
 2425SOL    HW2 7303   2.372   2.732   1.106
 2426SOL     OW 7304   3.222   2.724   1.045
 2426SOL    HW1 7305   3.147   2.724   0.979
 2426SOL    HW2 7306   3.259   2.632   1.054
 2427SOL     OW 7307   3.071   2.387   0.275
 2427SOL    HW1 7308   3.084   2.303   0.329
 2427SOL    HW2 7309   3.042   2.461   0.335
 2428SOL     OW 7310   2.169   2.075   1.231
 2428SOL    HW1 7311   2.146   2.112   1.321
 2428SOL    HW2 7312   2.139   1.980   1.225
 2429SOL     OW 7313   1.899   3.172   1.282
 2429SOL    HW1 7314   1.952   3.123   1.350
 2429SOL    HW2 7315   1.921   3.270   1.287
 2430SOL     OW 7316   2.594   2.496   1.064
 2430SOL    HW1 7317   2.653   2.470   0.988
 2430SOL    HW2 7318   2.566   2.592   1.053
 2431SOL     OW 7319   3.590   2.797   1.854
 2431SOL    HW1 7320   3.544   2.790   1.765
 2431SOL    HW2 7321   3.528   2.841   1.920
 2432SOL     OW 7322   2.169   1.925   0.618
 2432SOL    HW1 7323   2.158   2.019   0.651
 2432SOL    HW2 7324   2.164   1.862   0.695
 2433SOL     OW 7325   3.484   2.229   0.374
 2433SOL    HW1 7326   3.486   2.153   0.438
 2433SOL    HW2 7327   3.436   2.306   0.414
 2434SOL     OW 7328   2.885   2.628   0.966
 2434SOL    HW1 7329   2.900   2.649   1.062
 2434SOL    HW2 7330   2.855   2.533   0.957
 2435SOL     OW 7331   2.842   3.435   1.700
 2435SOL    HW1 7332   2.822   3.479   1.612
 2435SOL    HW2 7333   2.881   3.344   1.684
 2436SOL     OW 7334   3.721   3.380   1.605
 2436SOL    HW1 7335   3.735   3.407   1.510
 2436SOL    HW2 7336   3.804   3.402   1.658
 2437SOL     OW 7337   2.212   2.760   1.804
 2437SOL    HW1 7338   2.288   2.804   1.852
 2437SOL    HW2 7339   2.247   2.713   1.722
 2438SOL     OW 7340   3.402   2.136   0.125
 2438SOL    HW1 7341   3.341   2.061   0.148
 2438SOL    HW2 7342   3.424   2.188   0.208
 2439SOL     OW 7343   3.165   2.700   0.042
 2439SOL    HW1 7344   3.199   2.607   0.057
 2439SOL    HW2 7345   3.183   2.727  -0.053
 2440SOL     OW 7346   2.930   3.195   0.849
 2440SOL    HW1 7347   2.937   3.111   0.794
 2440SOL    HW2 7348   2.992   3.264   0.813
 2441SOL     OW 7349   2.181   2.672   0.949
 2441SOL    HW1 7350   2.274   2.708   0.954
 2441SOL    HW2 7351   2.175   2.587   1.001
 2442SOL     OW 7352   2.201   2.371   1.006
 2442SOL    HW1 7353   2.149   2.288   0.989
 2442SOL    HW2 7354   2.278   2.376   0.942
 2443SOL     OW 7355   3.000   2.242   1.678
 2443SOL    HW1 7356   2.955   2.305   1.742
 2443SOL    HW2 7357   3.093   2.273   1.661
 2444SOL     OW 7358   3.022   2.069   1.477
 2444SOL    HW1 7359   3.022   2.133   1.554
 2444SOL    HW2 7360   3.050   2.117   1.394
 2445SOL     OW 7361   1.870   3.188   0.200
 2445SOL    HW1 7362   1.777   3.209   0.169
 2445SOL    HW2 7363   1.880   3.089   0.213
 2446SOL     OW 7364   1.950   3.663   0.927
 2446SOL    HW1 7365   1.908   3.577   0.900
 2446SOL    HW2 7366   2.044   3.666   0.893
 2447SOL     OW 7367   2.366   3.430   0.910
 2447SOL    HW1 7368   2.432   3.504   0.919
 2447SOL    HW2 7369   2.410   3.351   0.868
 2448SOL     OW 7370   2.864   2.658   1.238
 2448SOL    HW1 7371   2.905   2.626   1.324
 2448SOL    HW2 7372   2.768   2.631   1.235
 2449SOL     OW 7373   1.902   2.406   1.114
 2449SOL    HW1 7374   1.987   2.373   1.073
 2449SOL    HW2 7375   1.915   2.421   1.212
 2450SOL     OW 7376   2.051   2.382   1.722
 2450SOL    HW1 7377   2.110   2.342   1.652
 2450SOL    HW2 7378   1.993   2.453   1.681
 2451SOL     OW 7379   3.231   2.812   1.660
 2451SOL    HW1 7380   3.270   2.901   1.680
 2451SOL    HW2 7381   3.241   2.792   1.563
 2452SOL     OW 7382   2.677   2.434   0.325
 2452SOL    HW1 7383   2.684   2.345   0.279
 2452SOL    HW2 7384   2.583   2.468   0.317
 2453SOL     OW 7385   3.519   2.466   1.206
 2453SOL    HW1 7386   3.481   2.397   1.268
 2453SOL    HW2 7387   3.601   2.430   1.162
 2454SOL     OW 7388   2.114   3.426   1.744
 2454SOL    HW1 7389   2.084   3.483   1.820
 2454SOL    HW2 7390   2.107   3.329   1.770
 2455SOL     OW 7391   2.533   2.326   1.269
 2455SOL    HW1 7392   2.499   2.237   1.239
 2455SOL    HW2 7393   2.559   2.380   1.189
 2456SOL     OW 7394   2.792   3.540   1.465
 2456SOL    HW1 7395   2.768   3.522   1.370
 2456SOL    HW2 7396   2.822   3.634   1.475
 2457SOL     OW 7397   2.335   2.362   0.191
 2457SOL    HW1 7398   2.396   2.442   0.195
 2457SOL    HW2 7399   2.240   2.393   0.198
 2458SOL     OW 7400   2.021   2.999   1.466
 2458SOL    HW1 7401   2.043   2.938   1.542
 2458SOL    HW2 7402   2.031   2.950   1.380
 2459SOL     OW 7403   3.209   2.921   1.234
 2459SOL    HW1 7404   3.233   2.858   1.160
 2459SOL    HW2 7405   3.119   2.961   1.216
 2460SOL     OW 7406   3.164   2.717   0.309
 2460SOL    HW1 7407   3.078   2.686   0.351
 2460SOL    HW2 7408   3.160   2.703   0.210
 2461SOL     OW 7409   3.621   3.609   1.154
 2461SOL    HW1 7410   3.682   3.639   1.081
 2461SOL    HW2 7411   3.583   3.520   1.132
 2462SOL     OW 7412   3.114   3.593   1.128
 2462SOL    HW1 7413   3.198   3.598   1.074
 2462SOL    HW2 7414   3.091   3.497   1.146
 2463SOL     OW 7415   1.945   3.120   1.022
 2463SOL    HW1 7416   1.940   3.119   1.122
 2463SOL    HW2 7417   1.862   3.079   0.984
 2464SOL     OW 7418   2.550   3.524   1.716
 2464SOL    HW1 7419   2.494   3.605   1.725
 2464SOL    HW2 7420   2.602   3.528   1.630
 2465SOL     OW 7421   2.765   1.948   0.133
 2465SOL    HW1 7422   2.816   1.949   0.047
 2465SOL    HW2 7423   2.821   1.906   0.204
 2466SOL     OW 7424   3.588   1.997   0.523
 2466SOL    HW1 7425   3.661   1.980   0.456
 2466SOL    HW2 7426   3.557   1.910   0.561
 2467SOL     OW 7427   3.250   3.435   0.477
 2467SOL    HW1 7428   3.317   3.447   0.403
 2467SOL    HW2 7429   3.210   3.524   0.500
 2468SOL     OW 7430   1.992   3.656   1.851
 2468SOL    HW1 7431   1.951   3.582   1.904
 2468SOL    HW2 7432   2.056   3.707   1.909
 2469SOL     OW 7433   3.142   2.789   0.672
 2469SOL    HW1 7434   3.202   2.708   0.674
 2469SOL    HW2 7435   3.182   2.858   0.612
 2470SOL     OW 7436   2.692   3.135   1.422
 2470SOL    HW1 7437   2.687   3.168   1.517
 2470SOL    HW2 7438   2.606   3.154   1.376
 2471SOL     OW 7439   2.534   3.478   0.154
 2471SOL    HW1 7440   2.543   3.488   0.055
 2471SOL    HW2 7441   2.494   3.389   0.175
 2472SOL     OW 7442   3.512   3.582   1.394
 2472SOL    HW1 7443   3.565   3.592   1.310
 2472SOL    HW2 7444   3.485   3.672   1.428
 2473SOL     OW 7445   3.703   2.037   0.963
 2473SOL    HW1 7446   3.742   1.952   0.927
 2473SOL    HW2 7447   3.605   2.039   0.944
 2474SOL     OW 7448   2.125   2.188   0.720
 2474SOL    HW1 7449   2.046   2.239   0.686
 2474SOL    HW2 7450   2.116   2.173   0.818
 2475SOL     OW 7451   3.056   3.474   0.031
 2475SOL    HW1 7452   3.062   3.381   0.068
 2475SOL    HW2 7453   2.997   3.474  -0.049
 2476SOL     OW 7454   2.684   2.864   1.372
 2476SOL    HW1 7455   2.724   2.863   1.280
 2476SOL    HW2 7456   2.694   2.956   1.412
 2477SOL     OW 7457   2.778   2.772   0.291
 2477SOL    HW1 7458   2.841   2.810   0.223
 2477SOL    HW2 7459   2.818   2.689   0.330
 2478SOL     OW 7460   3.366   3.469   0.044
 2478SOL    HW1 7461   3.274   3.506   0.051
 2478SOL    HW2 7462   3.404   3.489  -0.046
 2479SOL     OW 7463   2.234   3.150   1.490
 2479SOL    HW1 7464   2.221   3.243   1.456
 2479SOL    HW2 7465   2.150   3.098   1.477
 2480SOL     OW 7466   3.476   3.154   1.289
 2480SOL    HW1 7467   3.536   3.157   1.369
 2480SOL    HW2 7468   3.401   3.218   1.302
 2481SOL     OW 7469   2.901   2.960   0.696
 2481SOL    HW1 7470   2.831   2.913   0.750
 2481SOL    HW2 7471   2.960   2.892   0.653
 2482SOL     OW 7472   2.876   2.098   0.971
 2482SOL    HW1 7473   2.868   2.062   0.878
 2482SOL    HW2 7474   2.874   2.022   1.036
 2483SOL     OW 7475   2.452   3.349   0.491
 2483SOL    HW1 7476   2.494   3.291   0.421
 2483SOL    HW2 7477   2.408   3.428   0.447
 2484SOL     OW 7478   3.571   2.247   1.381
 2484SOL    HW1 7479   3.644   2.316   1.385
 2484SOL    HW2 7480   3.599   2.172   1.322
 2485SOL     OW 7481   2.117   3.210   0.290
 2485SOL    HW1 7482   2.021   3.211   0.263
 2485SOL    HW2 7483   2.129   3.263   0.374
 2486SOL     OW 7484   1.967   2.875   1.726
 2486SOL    HW1 7485   1.890   2.842   1.780
 2486SOL    HW2 7486   2.052   2.845   1.768
 2487SOL     OW 7487   2.534   2.065   1.489
 2487SOL    HW1 7488   2.624   2.049   1.449
 2487SOL    HW2 7489   2.542   2.070   1.588
 2488SOL     OW 7490   1.937   2.207   0.033
 2488SOL    HW1 7491   1.845   2.179   0.004
 2488SOL    HW2 7492   1.968   2.284  -0.023
 2489SOL     OW 7493   3.302   2.718   1.398
 2489SOL    HW1 7494   3.245   2.770   1.335
 2489SOL    HW2 7495   3.398   2.730   1.374
 2490SOL     OW 7496   1.934   2.028   0.318
 2490SOL    HW1 7497   1.917   2.111   0.264
 2490SOL    HW2 7498   2.024   1.991   0.296
 2491SOL     OW 7499   3.045   3.197   0.119
 2491SOL    HW1 7500   2.946   3.186   0.121
 2491SOL    HW2 7501   3.079   3.212   0.212
 2492SOL     OW 7502   2.475   2.704   1.431
 2492SOL    HW1 7503   2.531   2.785   1.414
 2492SOL    HW2 7504   2.534   2.624   1.434
 2493SOL     OW 7505   3.355   3.629   0.959
 2493SOL    HW1 7506   3.388   3.693   0.890
 2493SOL    HW2 7507   3.421   3.623   1.034
 2494SOL     OW 7508   2.578   2.427   1.708
 2494SOL    HW1 7509   2.597   2.492   1.782
 2494SOL    HW2 7510   2.638   2.347   1.717
 2495SOL     OW 7511   3.312   3.082   1.633
 2495SOL    HW1 7512   3.303   3.072   1.732
 2495SOL    HW2 7513   3.408   3.075   1.607
 2496SOL     OW 7514   2.252   3.603   1.560
 2496SOL    HW1 7515   2.161   3.644   1.558
 2496SOL    HW2 7516   2.245   3.509   1.592
 2497SOL     OW 7517   3.536   2.745   1.254
 2497SOL    HW1 7518   3.509   2.656   1.217
 2497SOL    HW2 7519   3.537   2.813   1.181
 2498SOL     OW 7520   3.087   2.187   0.449
 2498SOL    HW1 7521   3.152   2.113   0.438
 2498SOL    HW2 7522   3.107   2.237   0.533
 2499SOL     OW 7523   2.456   2.607   0.652
 2499SOL    HW1 7524   2.506   2.692   0.633
 2499SOL    HW2 7525   2.368   2.609   0.604
 2500SOL     OW 7526   3.639   2.204   1.642
 2500SOL    HW1 7527   3.622   2.235   1.548
 2500SOL    HW2 7528   3.555   2.167   1.680
 2501SOL     OW 7529   3.592   2.796   1.517
 2501SOL    HW1 7530   3.630   2.887   1.532
 2501SOL    HW2 7531   3.584   2.779   1.418
 2502SOL     OW 7532   2.721   3.236   0.016
 2502SOL    HW1 7533   2.675   3.251   0.104
 2502SOL    HW2 7534   2.765   3.321  -0.014
 2503SOL     OW 7535   2.523   3.652   0.953
 2503SOL    HW1 7536   2.477   3.740   0.940
 2503SOL    HW2 7537   2.622   3.664   0.946
 2504SOL     OW 7538   2.721   2.818   0.861
 2504SOL    HW1 7539   2.775   2.749   0.909
 2504SOL    HW2 7540   2.689   2.887   0.927
 2505SOL     OW 7541   2.945   2.846   0.087
 2505SOL    HW1 7542   2.922   2.899   0.005
 2505SOL    HW2 7543   3.026   2.790   0.068
 2506SOL     OW 7544   3.723   3.431   0.851
 2506SOL    HW1 7545   3.652   3.419   0.781
 2506SOL    HW2 7546   3.724   3.352   0.911
 2507SOL     OW 7547   2.083   3.176   1.844
 2507SOL    HW1 7548   2.018   3.103   1.823
 2507SOL    HW2 7549   2.087   3.190   1.942
 2508SOL     OW 7550   1.941   3.102   0.653
 2508SOL    HW1 7551   1.940   3.055   0.741
 2508SOL    HW2 7552   2.023   3.074   0.602
 2509SOL     OW 7553   2.534   3.253   1.624
 2509SOL    HW1 7554   2.456   3.203   1.662
 2509SOL    HW2 7555   2.531   3.348   1.655
 2510SOL     OW 7556   3.686   2.054   1.227
 2510SOL    HW1 7557   3.682   1.964   1.271
 2510SOL    HW2 7558   3.689   2.043   1.128
 2511SOL     OW 7559   2.290   2.286   0.520
 2511SOL    HW1 7560   2.320   2.214   0.458
 2511SOL    HW2 7561   2.251   2.246   0.603
 2512SOL     OW 7562   3.567   3.349   1.104
 2512SOL    HW1 7563   3.474   3.324   1.077
 2512SOL    HW2 7564   3.593   3.299   1.186
 2513SOL     OW 7565   2.179   2.409   1.280
 2513SOL    HW1 7566   2.217   2.350   1.352
 2513SOL    HW2 7567   2.219   2.383   1.192
 2514SOL     OW 7568   2.674   3.448   0.687
 2514SOL    HW1 7569   2.706   3.458   0.593
 2514SOL    HW2 7570   2.595   3.386   0.689
 2515SOL     OW 7571   3.286   2.076   1.112
 2515SOL    HW1 7572   3.338   2.011   1.167
 2515SOL    HW2 7573   3.237   2.139   1.173
 2516SOL     OW 7574   2.863   1.896   1.154
 2516SOL    HW1 7575   2.800   1.824   1.123
 2516SOL    HW2 7576   2.956   1.860   1.154
 2517SOL     OW 7577   2.632   3.192   0.301
 2517SOL    HW1 7578   2.586   3.105   0.318
 2517SOL    HW2 7579   2.723   3.189   0.342
 2518SOL     OW 7580   2.480   3.429   1.284
 2518SOL    HW1 7581   2.475   3.511   1.341
 2518SOL    HW2 7582   2.569   3.426   1.239
 2519SOL     OW 7583   3.214   1.914   0.168
 2519SOL    HW1 7584   3.249   1.873   0.084
 2519SOL    HW2 7585   3.124   1.876   0.188
 2520SOL     OW 7586   3.162   2.315   0.691
 2520SOL    HW1 7587   3.103   2.395   0.695
 2520SOL    HW2 7588   3.177   2.280   0.784
 2521SOL     OW 7589   3.455   2.083   0.882
 2521SOL    HW1 7590   3.371   2.082   0.936
 2521SOL    HW2 7591   3.457   2.166   0.826
 2522SOL     OW 7592   1.901   2.939   0.300
 2522SOL    HW1 7593   2.000   2.928   0.291
 2522SOL    HW2 7594   1.861   2.853   0.332
 2523SOL     OW 7595   2.737   3.508   0.337
 2523SOL    HW1 7596   2.660   3.473   0.283
 2523SOL    HW2 7597   2.705   3.579   0.399
 2524SOL     OW 7598   2.092   2.490   1.975
 2524SOL    HW1 7599   1.999   2.488   2.012
 2524SOL    HW2 7600   2.093   2.451   1.883
 2525SOL     OW 7601   2.087   2.137   2.858
 2525SOL    HW1 7602   2.122   2.120   2.950
 2525SOL    HW2 7603   1.999   2.092   2.846
 2526SOL     OW 7604   1.881   2.230   2.509
 2526SOL    HW1 7605   1.799   2.273   2.548
 2526SOL    HW2 7606   1.853   2.157   2.446
 2527SOL     OW 7607   2.431   3.137   3.027
 2527SOL    HW1 7608   2.338   3.130   2.990
 2527SOL    HW2 7609   2.442   3.226   3.071
 2528SOL     OW 7610   3.417   3.373   2.565
 2528SOL    HW1 7611   3.360   3.357   2.646
 2528SOL    HW2 7612   3.358   3.383   2.485
 2529SOL     OW 7613   2.997   2.565   2.579
 2529SOL    HW1 7614   3.054   2.643   2.554
 2529SOL    HW2 7615   2.937   2.591   2.655
 2530SOL     OW 7616   3.617   2.469   2.093
 2530SOL    HW1 7617   3.605   2.456   1.994
 2530SOL    HW2 7618   3.587   2.388   2.142
 2531SOL     OW 7619   2.630   3.006   2.885
 2531SOL    HW1 7620   2.552   3.023   2.945
 2531SOL    HW2 7621   2.664   3.093   2.849
 2532SOL     OW 7622   2.712   2.660   3.685
 2532SOL    HW1 7623   2.708   2.736   3.750
 2532SOL    HW2 7624   2.734   2.696   3.594
 2533SOL     OW 7625   2.548   3.023   3.665
 2533SOL    HW1 7626   2.608   3.102   3.679
 2533SOL    HW2 7627   2.462   3.054   3.624
 2534SOL     OW 7628   2.197   3.297   2.923
 2534SOL    HW1 7629   2.119   3.266   2.870
 2534SOL    HW2 7630   2.255   3.355   2.866
 2535SOL     OW 7631   3.322   3.367   3.201
 2535SOL    HW1 7632   3.346   3.461   3.227
 2535SOL    HW2 7633   3.306   3.313   3.283
 2536SOL     OW 7634   2.300   2.254   3.361
 2536SOL    HW1 7635   2.382   2.198   3.370
 2536SOL    HW2 7636   2.219   2.196   3.365
 2537SOL     OW 7637   3.465   2.309   2.599
 2537SOL    HW1 7638   3.391   2.355   2.549
 2537SOL    HW2 7639   3.516   2.377   2.652
 2538SOL     OW 7640   2.093   3.575   2.345
 2538SOL    HW1 7641   2.127   3.652   2.399
 2538SOL    HW2 7642   2.137   3.575   2.255
 2539SOL     OW 7643   2.989   3.203   3.552
 2539SOL    HW1 7644   3.036   3.203   3.640
 2539SOL    HW2 7645   2.941   3.116   3.541
 2540SOL     OW 7646   2.092   3.296   2.400
 2540SOL    HW1 7647   2.066   3.392   2.400
 2540SOL    HW2 7648   2.021   3.242   2.445
 2541SOL     OW 7649   2.102   2.953   2.748
 2541SOL    HW1 7650   2.116   2.869   2.800
 2541SOL    HW2 7651   2.047   3.017   2.803
 2542SOL     OW 7652   2.482   3.648   3.301
 2542SOL    HW1 7653   2.390   3.631   3.336
 2542SOL    HW2 7654   2.510   3.740   3.327
 2543SOL     OW 7655   2.468   2.826   1.985
 2543SOL    HW1 7656   2.475   2.910   1.931
 2543SOL    HW2 7657   2.514   2.839   2.073
 2544SOL     OW 7658   3.456   1.976   3.342
 2544SOL    HW1 7659   3.438   2.043   3.270
 2544SOL    HW2 7660   3.453   2.022   3.431
 2545SOL     OW 7661   1.984   2.505   2.425
 2545SOL    HW1 7662   1.939   2.417   2.442
 2545SOL    HW2 7663   1.983   2.559   2.509
 2546SOL     OW 7664   3.704   3.629   2.221
 2546SOL    HW1 7665   3.758   3.600   2.301
 2546SOL    HW2 7666   3.734   3.719   2.192
 2547SOL     OW 7667   1.889   3.458   1.979
 2547SOL    HW1 7668   1.870   3.362   2.000
 2547SOL    HW2 7669   1.856   3.516   2.054
 2548SOL     OW 7670   3.551   2.784   2.474
 2548SOL    HW1 7671   3.646   2.755   2.482
 2548SOL    HW2 7672   3.543   2.849   2.399
 2549SOL     OW 7673   3.503   2.970   2.294
 2549SOL    HW1 7674   3.589   2.972   2.242
 2549SOL    HW2 7675   3.517   3.017   2.382
 2550SOL     OW 7676   1.975   2.599   3.459
 2550SOL    HW1 7677   2.063   2.586   3.504
 2550SOL    HW2 7678   1.962   2.696   3.437
 2551SOL     OW 7679   3.155   3.090   3.285
 2551SOL    HW1 7680   3.192   3.017   3.227
 2551SOL    HW2 7681   3.207   3.095   3.370
 2552SOL     OW 7682   2.671   1.866   2.364
 2552SOL    HW1 7683   2.711   1.957   2.355
 2552SOL    HW2 7684   2.571   1.874   2.370
 2553SOL     OW 7685   2.059   2.838   3.126
 2553SOL    HW1 7686   2.148   2.793   3.112
 2553SOL    HW2 7687   1.986   2.773   3.107
 2554SOL     OW 7688   3.387   2.861   2.052
 2554SOL    HW1 7689   3.324   2.785   2.065
 2554SOL    HW2 7690   3.435   2.879   2.138
 2555SOL     OW 7691   3.049   3.654   3.478
 2555SOL    HW1 7692   3.073   3.714   3.402
 2555SOL    HW2 7693   3.056   3.559   3.448
 2556SOL     OW 7694   2.179   2.113   3.663
 2556SOL    HW1 7695   2.250   2.184   3.669
 2556SOL    HW2 7696   2.091   2.152   3.691
 2557SOL     OW 7697   3.328   3.279   2.815
 2557SOL    HW1 7698   3.269   3.285   2.895
 2557SOL    HW2 7699   3.313   3.191   2.769
 2558SOL     OW 7700   3.529   3.576   2.434
 2558SOL    HW1 7701   3.488   3.553   2.346
 2558SOL    HW2 7702   3.511   3.502   2.499
 2559SOL     OW 7703   2.460   2.591   2.132
 2559SOL    HW1 7704   2.484   2.660   2.064
 2559SOL    HW2 7705   2.382   2.624   2.186
 2560SOL     OW 7706   3.143   2.207   2.806
 2560SOL    HW1 7707   3.057   2.157   2.793
 2560SOL    HW2 7708   3.205   2.153   2.862
 2561SOL     OW 7709   3.438   3.524   2.169
 2561SOL    HW1 7710   3.527   3.570   2.172
 2561SOL    HW2 7711   3.417   3.500   2.074
 2562SOL     OW 7712   2.669   2.467   3.327
 2562SOL    HW1 7713   2.622   2.464   3.416
 2562SOL    HW2 7714   2.618   2.412   3.261
 2563SOL     OW 7715   3.256   2.331   3.536
 2563SOL    HW1 7716   3.236   2.374   3.624
 2563SOL    HW2 7717   3.334   2.269   3.545
 2564SOL     OW 7718   2.835   2.752   3.434
 2564SOL    HW1 7719   2.881   2.668   3.405
 2564SOL    HW2 7720   2.779   2.786   3.359
 2565SOL     OW 7721   2.853   2.272   3.104
 2565SOL    HW1 7722   2.776   2.306   3.158
 2565SOL    HW2 7723   2.819   2.221   3.025
 2566SOL     OW 7724   2.903   2.563   2.291
 2566SOL    HW1 7725   2.929   2.559   2.387
 2566SOL    HW2 7726   2.818   2.512   2.277
 2567SOL     OW 7727   1.938   2.673   2.651
 2567SOL    HW1 7728   2.037   2.661   2.660
 2567SOL    HW2 7729   1.914   2.768   2.672
 2568SOL     OW 7730   1.992   3.683   3.433
 2568SOL    HW1 7731   1.982   3.668   3.532
 2568SOL    HW2 7732   1.906   3.719   3.397
 2569SOL     OW 7733   2.727   2.210   2.057
 2569SOL    HW1 7734   2.786   2.273   2.008
 2569SOL    HW2 7735   2.746   2.116   2.028
 2570SOL     OW 7736   3.581   2.447   3.693
 2570SOL    HW1 7737   3.555   2.536   3.657
 2570SOL    HW2 7738   3.579   2.379   3.620
 2571SOL     OW 7739   3.224   3.006   2.407
 2571SOL    HW1 7740   3.307   2.977   2.359
 2571SOL    HW2 7741   3.175   3.073   2.351
 2572SOL     OW 7742   2.412   2.058   2.747
 2572SOL    HW1 7743   2.407   2.053   2.847
 2572SOL    HW2 7744   2.414   2.154   2.718
 2573SOL     OW 7745   2.870   3.318   2.339
 2573SOL    HW1 7746   2.824   3.390   2.287
 2573SOL    HW2 7747   2.866   3.338   2.437
 2574SOL     OW 7748   2.213   3.663   2.715
 2574SOL    HW1 7749   2.263   3.577   2.721
 2574SOL    HW2 7750   2.278   3.740   2.712
 2575SOL     OW 7751   3.657   2.928   2.735
 2575SOL    HW1 7752   3.595   2.913   2.659
 2575SOL    HW2 7753   3.605   2.939   2.820
 2576SOL     OW 7754   3.089   3.412   3.368
 2576SOL    HW1 7755   3.095   3.335   3.432
 2576SOL    HW2 7756   3.037   3.386   3.288
 2577SOL     OW 7757   2.183   2.805   2.104
 2577SOL    HW1 7758   2.265   2.844   2.062
 2577SOL    HW2 7759   2.156   2.723   2.055
 2578SOL     OW 7760   3.320   2.597   2.590
 2578SOL    HW1 7761   3.315   2.532   2.665
 2578SOL    HW2 7762   3.400   2.656   2.603
 2579SOL     OW 7763   2.323   3.128   3.589
 2579SOL    HW1 7764   2.273   3.129   3.503
 2579SOL    HW2 7765   2.260   3.110   3.665
 2580SOL     OW 7766   2.973   3.638   2.099
 2580SOL    HW1 7767   2.913   3.576   2.149
 2580SOL    HW2 7768   3.004   3.594   2.014
 2581SOL     OW 7769   2.064   2.147   3.360
 2581SOL    HW1 7770   1.984   2.207   3.347
 2581SOL    HW2 7771   2.054   2.098   3.446
 2582SOL     OW 7772   3.494   3.239   1.943
 2582SOL    HW1 7773   3.462   3.333   1.933
 2582SOL    HW2 7774   3.418   3.176   1.931
 2583SOL     OW 7775   2.326   3.605   2.185
 2583SOL    HW1 7776   2.359   3.644   2.271
 2583SOL    HW2 7777   2.402   3.598   2.120
 2584SOL     OW 7778   3.262   1.969   2.288
 2584SOL    HW1 7779   3.238   1.932   2.198
 2584SOL    HW2 7780   3.361   1.985   2.292
 2585SOL     OW 7781   2.111   3.647   3.103
 2585SOL    HW1 7782   2.168   3.582   3.153
 2585SOL    HW2 7783   2.095   3.614   3.010
 2586SOL     OW 7784   2.802   3.560   2.766
 2586SOL    HW1 7785   2.882   3.503   2.787
 2586SOL    HW2 7786   2.753   3.520   2.689
 2587SOL     OW 7787   2.244   2.562   2.342
 2587SOL    HW1 7788   2.289   2.472   2.339
 2587SOL    HW2 7789   2.150   2.551   2.375
 2588SOL     OW 7790   3.409   2.084   3.591
 2588SOL    HW1 7791   3.404   2.121   3.683
 2588SOL    HW2 7792   3.337   2.015   3.579
 2589SOL     OW 7793   2.476   1.984   1.979
 2589SOL    HW1 7794   2.574   1.962   1.986
 2589SOL    HW2 7795   2.445   1.967   1.886
 2590SOL     OW 7796   2.643   2.126   3.611
 2590SOL    HW1 7797   2.710   2.065   3.654
 2590SOL    HW2 7798   2.570   2.145   3.676
 2591SOL     OW 7799   2.750   3.376   3.057
 2591SOL    HW1 7800   2.727   3.351   2.963
 2591SOL    HW2 7801   2.811   3.307   3.096
 2592SOL     OW 7802   3.213   2.452   3.295
 2592SOL    HW1 7803   3.241   2.409   3.380
 2592SOL    HW2 7804   3.238   2.548   3.296
 2593SOL     OW 7805   2.665   3.264   2.786
 2593SOL    HW1 7806   2.755   3.278   2.744
 2593SOL    HW2 7807   2.594   3.266   2.715
 2594SOL     OW 7808   2.401   1.926   2.374
 2594SOL    HW1 7809   2.320   1.927   2.432
 2594SOL    HW2 7810   2.404   2.009   2.319
 2595SOL     OW 7811   3.296   3.050   1.903
 2595SOL    HW1 7812   3.328   2.974   1.960
 2595SOL    HW2 7813   3.204   3.077   1.933
 2596SOL     OW 7814   2.159   1.897   2.033
 2596SOL    HW1 7815   2.208   1.981   2.012
 2596SOL    HW2 7816   2.221   1.832   2.078
 2597SOL     OW 7817   2.797   2.098   2.342
 2597SOL    HW1 7818   2.749   2.139   2.264
 2597SOL    HW2 7819   2.896   2.096   2.323
 2598SOL     OW 7820   2.938   2.545   3.326
 2598SOL    HW1 7821   2.858   2.484   3.329
 2598SOL    HW2 7822   3.019   2.492   3.302
 2599SOL     OW 7823   3.089   3.432   2.655
 2599SOL    HW1 7824   3.110   3.506   2.590
 2599SOL    HW2 7825   3.157   3.432   2.728
 2600SOL     OW 7826   3.133   3.659   2.453
 2600SOL    HW1 7827   3.177   3.723   2.389
 2600SOL    HW2 7828   3.083   3.711   2.523
 2601SOL     OW 7829   2.894   2.411   1.878
 2601SOL    HW1 7830   2.853   2.493   1.839
 2601SOL    HW2 7831   2.958   2.437   1.951
 2602SOL     OW 7832   1.940   2.418   3.248
 2602SOL    HW1 7833   2.032   2.417   3.207
 2602SOL    HW2 7834   1.934   2.492   3.315
 2603SOL     OW 7835   2.423   2.084   3.009
 2603SOL    HW1 7836   2.461   2.000   3.046
 2603SOL    HW2 7837   2.335   2.103   3.053
 2604SOL     OW 7838   2.879   1.901   2.615
 2604SOL    HW1 7839   2.807   1.906   2.546
 2604SOL    HW2 7840   2.855   1.832   2.684
 2605SOL     OW 7841   3.291   3.035   2.729
 2605SOL    HW1 7842   3.236   2.951   2.722
 2605SOL    HW2 7843   3.317   3.064   2.637
 2606SOL     OW 7844   3.328   2.452   2.854
 2606SOL    HW1 7845   3.298   2.357   2.861
 2606SOL    HW2 7846   3.401   2.468   2.920
 2607SOL     OW 7847   3.719   2.695   2.239
 2607SOL    HW1 7848   3.761   2.631   2.303
 2607SOL    HW2 7849   3.681   2.644   2.161
 2608SOL     OW 7850   2.350   3.247   2.036
 2608SOL    HW1 7851   2.263   3.232   2.083
 2608SOL    HW2 7852   2.333   3.273   1.941
 2609SOL     OW 7853   3.526   3.142   2.519
 2609SOL    HW1 7854   3.625   3.150   2.533
 2609SOL    HW2 7855   3.481   3.226   2.550
 2610SOL     OW 7856   3.252   2.437   1.940
 2610SOL    HW1 7857   3.198   2.416   2.021
 2610SOL    HW2 7858   3.343   2.396   1.949
 2611SOL     OW 7859   2.389   2.118   2.190
 2611SOL    HW1 7860   2.416   2.059   2.115
 2611SOL    HW2 7861   2.389   2.213   2.159
 2612SOL     OW 7862   3.616   3.085   3.450
 2612SOL    HW1 7863   3.707   3.046   3.437
 2612SOL    HW2 7864   3.624   3.181   3.474
 2613SOL     OW 7865   2.926   3.209   3.202
 2613SOL    HW1 7866   2.846   3.186   3.257
 2613SOL    HW2 7867   3.009   3.183   3.251
 2614SOL     OW 7868   3.454   3.491   3.487
 2614SOL    HW1 7869   3.481   3.525   3.397
 2614SOL    HW2 7870   3.533   3.453   3.533
 2615SOL     OW 7871   2.973   3.057   2.962
 2615SOL    HW1 7872   2.933   3.101   3.043
 2615SOL    HW2 7873   2.932   3.094   2.879
 2616SOL     OW 7874   3.500   2.961   2.941
 2616SOL    HW1 7875   3.505   3.042   3.000
 2616SOL    HW2 7876   3.414   2.963   2.890
 2617SOL     OW 7877   2.777   1.951   3.264
 2617SOL    HW1 7878   2.802   1.931   3.169
 2617SOL    HW2 7879   2.849   2.007   3.306
 2618SOL     OW 7880   2.842   2.978   3.581
 2618SOL    HW1 7881   2.743   2.984   3.591
 2618SOL    HW2 7882   2.865   2.898   3.525
 2619SOL     OW 7883   2.567   2.912   2.230
 2619SOL    HW1 7884   2.553   2.919   2.329
 2619SOL    HW2 7885   2.651   2.861   2.212
 2620SOL     OW 7886   2.272   2.675   3.113
 2620SOL    HW1 7887   2.358   2.687   3.163
 2620SOL    HW2 7888   2.230   2.588   3.140
 2621SOL     OW 7889   3.136   2.248   3.124
 2621SOL    HW1 7890   3.157   2.322   3.188
 2621SOL    HW2 7891   3.047   2.265   3.081
 2622SOL     OW 7892   1.926   3.426   3.193
 2622SOL    HW1 7893   1.880   3.508   3.159
 2622SOL    HW2 7894   2.024   3.445   3.202
 2623SOL     OW 7895   2.229   2.962   2.363
 2623SOL    HW1 7896   2.222   3.045   2.307
 2623SOL    HW2 7897   2.233   2.882   2.303
 2624SOL     OW 7898   2.428   2.399   2.727
 2624SOL    HW1 7899   2.440   2.465   2.653
 2624SOL    HW2 7900   2.474   2.433   2.810
 2625SOL     OW 7901   3.114   3.210   2.250
 2625SOL    HW1 7902   3.164   3.287   2.290
 2625SOL    HW2 7903   3.019   3.212   2.282
 2626SOL     OW 7904   3.134   3.307   3.004
 2626SOL    HW1 7905   3.181   3.320   3.091
 2626SOL    HW2 7906   3.068   3.233   3.013
 2627SOL     OW 7907   3.444   2.501   2.334
 2627SOL    HW1 7908   3.413   2.562   2.407
 2627SOL    HW2 7909   3.494   2.553   2.265
 2628SOL     OW 7910   2.216   3.372   3.191
 2628SOL    HW1 7911   2.195   3.328   3.104
 2628SOL    HW2 7912   2.313   3.398   3.194
 2629SOL     OW 7913   2.264   2.613   3.460
 2629SOL    HW1 7914   2.332   2.668   3.413
 2629SOL    HW2 7915   2.304   2.525   3.487
 2630SOL     OW 7916   3.449   2.641   3.532
 2630SOL    HW1 7917   3.357   2.679   3.527
 2630SOL    HW2 7918   3.509   2.688   3.467
 2631SOL     OW 7919   2.875   1.967   3.632
 2631SOL    HW1 7920   2.881   2.052   3.580
 2631SOL    HW2 7921   2.907   1.891   3.575
 2632SOL     OW 7922   2.366   1.912   3.602
 2632SOL    HW1 7923   2.324   1.855   3.532
 2632SOL    HW2 7924   2.300   1.981   3.634
 2633SOL     OW 7925   2.435   2.732   2.891
 2633SOL    HW1 7926   2.479   2.821   2.882
 2633SOL    HW2 7927   2.372   2.732   2.968
 2634SOL     OW 7928   3.222   2.724   2.907
 2634SOL    HW1 7929   3.147   2.724   2.841
 2634SOL    HW2 7930   3.259   2.632   2.916
 2635SOL     OW 7931   3.071   2.387   2.137
 2635SOL    HW1 7932   3.084   2.303   2.191
 2635SOL    HW2 7933   3.042   2.461   2.197
 2636SOL     OW 7934   2.169   2.075   3.093
 2636SOL    HW1 7935   2.146   2.112   3.183
 2636SOL    HW2 7936   2.139   1.980   3.087
 2637SOL     OW 7937   1.899   3.172   3.144
 2637SOL    HW1 7938   1.952   3.123   3.212
 2637SOL    HW2 7939   1.921   3.270   3.149
 2638SOL     OW 7940   3.590   2.797   3.716
 2638SOL    HW1 7941   3.544   2.790   3.627
 2638SOL    HW2 7942   3.528   2.841   3.782
 2639SOL     OW 7943   2.169   1.925   2.480
 2639SOL    HW1 7944   2.158   2.019   2.513
 2639SOL    HW2 7945   2.164   1.862   2.557
 2640SOL     OW 7946   3.484   2.229   2.236
 2640SOL    HW1 7947   3.486   2.153   2.300
 2640SOL    HW2 7948   3.436   2.306   2.276
 2641SOL     OW 7949   2.842   3.435   3.562
 2641SOL    HW1 7950   2.822   3.479   3.474
 2641SOL    HW2 7951   2.881   3.344   3.546
 2642SOL     OW 7952   3.721   3.380   3.467
 2642SOL    HW1 7953   3.735   3.407   3.372
 2642SOL    HW2 7954   3.804   3.402   3.520
 2643SOL     OW 7955   2.212   2.760   3.666
 2643SOL    HW1 7956   2.288   2.804   3.714
 2643SOL    HW2 7957   2.247   2.713   3.584
 2644SOL     OW 7958   3.402   2.136   1.987
 2644SOL    HW1 7959   3.341   2.061   2.010
 2644SOL    HW2 7960   3.424   2.188   2.070
 2645SOL     OW 7961   3.165   2.700   1.904
 2645SOL    HW1 7962   3.199   2.607   1.919
 2645SOL    HW2 7963   3.183   2.727   1.809
 2646SOL     OW 7964   2.930   3.195   2.711
 2646SOL    HW1 7965   2.937   3.111   2.656
 2646SOL    HW2 7966   2.992   3.264   2.675
 2647SOL     OW 7967   2.181   2.672   2.811
 2647SOL    HW1 7968   2.274   2.708   2.816
 2647SOL    HW2 7969   2.175   2.587   2.863
 2648SOL     OW 7970   2.201   2.371   2.868
 2648SOL    HW1 7971   2.149   2.288   2.851
 2648SOL    HW2 7972   2.278   2.376   2.804
 2649SOL     OW 7973   3.000   2.242   3.540
 2649SOL    HW1 7974   2.955   2.305   3.604
 2649SOL    HW2 7975   3.093   2.273   3.523
 2650SOL     OW 7976   3.022   2.069   3.339
 2650SOL    HW1 7977   3.022   2.133   3.416
 2650SOL    HW2 7978   3.050   2.117   3.256
 2651SOL     OW 7979   1.870   3.188   2.062
 2651SOL    HW1 7980   1.777   3.209   2.031
 2651SOL    HW2 7981   1.880   3.089   2.075
 2652SOL     OW 7982   1.950   3.663   2.789
 2652SOL    HW1 7983   1.908   3.577   2.762
 2652SOL    HW2 7984   2.044   3.666   2.755
 2653SOL     OW 7985   2.366   3.430   2.772
 2653SOL    HW1 7986   2.432   3.504   2.781
 2653SOL    HW2 7987   2.410   3.351   2.730
 2654SOL     OW 7988   2.864   2.658   3.100
 2654SOL    HW1 7989   2.905   2.626   3.186
 2654SOL    HW2 7990   2.768   2.631   3.097
 2655SOL     OW 7991   1.902   2.406   2.976
 2655SOL    HW1 7992   1.987   2.373   2.935
 2655SOL    HW2 7993   1.915   2.421   3.074
 2656SOL     OW 7994   2.051   2.382   3.584
 2656SOL    HW1 7995   2.110   2.342   3.514
 2656SOL    HW2 7996   1.993   2.453   3.543
 2657SOL     OW 7997   3.231   2.812   3.522
 2657SOL    HW1 7998   3.270   2.901   3.542
 2657SOL    HW2 7999   3.241   2.792   3.425
 2658SOL     OW 8000   2.677   2.434   2.187
 2658SOL    HW1 8001   2.684   2.345   2.141
 2658SOL    HW2 8002   2.583   2.468   2.179
 2659SOL     OW 8003   3.519   2.466   3.068
 2659SOL    HW1 8004   3.481   2.397   3.130
 2659SOL    HW2 8005   3.601   2.430   3.024
 2660SOL     OW 8006   2.114   3.426   3.606
 2660SOL    HW1 8007   2.084   3.483   3.682
 2660SOL    HW2 8008   2.107   3.329   3.632
 2661SOL     OW 8009   2.533   2.326   3.131
 2661SOL    HW1 8010   2.499   2.237   3.101
 2661SOL    HW2 8011   2.559   2.380   3.051
 2662SOL     OW 8012   2.792   3.540   3.327
 2662SOL    HW1 8013   2.768   3.522   3.232
 2662SOL    HW2 8014   2.822   3.634   3.337
 2663SOL     OW 8015   2.335   2.362   2.053
 2663SOL    HW1 8016   2.396   2.442   2.057
 2663SOL    HW2 8017   2.240   2.393   2.060
 2664SOL     OW 8018   2.021   2.999   3.328
 2664SOL    HW1 8019   2.043   2.938   3.404
 2664SOL    HW2 8020   2.031   2.950   3.242
 2665SOL     OW 8021   3.209   2.921   3.096
 2665SOL    HW1 8022   3.233   2.858   3.022
 2665SOL    HW2 8023   3.119   2.961   3.078
 2666SOL     OW 8024   3.164   2.717   2.171
 2666SOL    HW1 8025   3.078   2.686   2.213
 2666SOL    HW2 8026   3.160   2.703   2.072
 2667SOL     OW 8027   3.621   3.609   3.016
 2667SOL    HW1 8028   3.682   3.639   2.943
 2667SOL    HW2 8029   3.583   3.520   2.994
 2668SOL     OW 8030   3.114   3.593   2.990
 2668SOL    HW1 8031   3.198   3.598   2.936
 2668SOL    HW2 8032   3.091   3.497   3.008
 2669SOL     OW 8033   1.945   3.120   2.884
 2669SOL    HW1 8034   1.940   3.119   2.984
 2669SOL    HW2 8035   1.862   3.079   2.846
 2670SOL     OW 8036   2.550   3.524   3.578
 2670SOL    HW1 8037   2.494   3.605   3.587
 2670SOL    HW2 8038   2.602   3.528   3.492
 2671SOL     OW 8039   3.588   1.997   2.385
 2671SOL    HW1 8040   3.661   1.980   2.318
 2671SOL    HW2 8041   3.557   1.910   2.423
 2672SOL     OW 8042   3.250   3.435   2.339
 2672SOL    HW1 8043   3.317   3.447   2.265
 2672SOL    HW2 8044   3.210   3.524   2.362
 2673SOL     OW 8045   1.992   3.656   3.713
 2673SOL    HW1 8046   1.951   3.582   3.766
 2673SOL    HW2 8047   2.056   3.707   3.771
 2674SOL     OW 8048   3.142   2.789   2.534
 2674SOL    HW1 8049   3.202   2.708   2.536
 2674SOL    HW2 8050   3.182   2.858   2.474
 2675SOL     OW 8051   2.692   3.135   3.284
 2675SOL    HW1 8052   2.687   3.168   3.379
 2675SOL    HW2 8053   2.606   3.154   3.238
 2676SOL     OW 8054   2.534   3.478   2.016
 2676SOL    HW1 8055   2.543   3.488   1.917
 2676SOL    HW2 8056   2.494   3.389   2.037
 2677SOL     OW 8057   3.512   3.582   3.256
 2677SOL    HW1 8058   3.565   3.592   3.172
 2677SOL    HW2 8059   3.485   3.672   3.290
 2678SOL     OW 8060   3.703   2.037   2.825
 2678SOL    HW1 8061   3.742   1.952   2.789
 2678SOL    HW2 8062   3.605   2.039   2.806
 2679SOL     OW 8063   2.125   2.188   2.582
 2679SOL    HW1 8064   2.046   2.239   2.548
 2679SOL    HW2 8065   2.116   2.173   2.680
 2680SOL     OW 8066   3.056   3.474   1.893
 2680SOL    HW1 8067   3.062   3.381   1.930
 2680SOL    HW2 8068   2.997   3.474   1.813
 2681SOL     OW 8069   2.684   2.864   3.234
 2681SOL    HW1 8070   2.724   2.863   3.142
 2681SOL    HW2 8071   2.694   2.956   3.274
 2682SOL     OW 8072   2.778   2.772   2.153
 2682SOL    HW1 8073   2.841   2.810   2.085
 2682SOL    HW2 8074   2.818   2.689   2.192
 2683SOL     OW 8075   3.366   3.469   1.906
 2683SOL    HW1 8076   3.274   3.506   1.913
 2683SOL    HW2 8077   3.404   3.489   1.816
 2684SOL     OW 8078   2.234   3.150   3.352
 2684SOL    HW1 8079   2.221   3.243   3.318
 2684SOL    HW2 8080   2.150   3.098   3.339
 2685SOL     OW 8081   3.476   3.154   3.151
 2685SOL    HW1 8082   3.536   3.157   3.231
 2685SOL    HW2 8083   3.401   3.218   3.164
 2686SOL     OW 8084   2.876   2.098   2.833
 2686SOL    HW1 8085   2.868   2.062   2.740
 2686SOL    HW2 8086   2.874   2.022   2.898
 2687SOL     OW 8087   2.452   3.349   2.353
 2687SOL    HW1 8088   2.494   3.291   2.283
 2687SOL    HW2 8089   2.408   3.428   2.309
 2688SOL     OW 8090   3.571   2.247   3.243
 2688SOL    HW1 8091   3.644   2.316   3.247
 2688SOL    HW2 8092   3.599   2.172   3.184
 2689SOL     OW 8093   2.117   3.210   2.152
 2689SOL    HW1 8094   2.021   3.211   2.125
 2689SOL    HW2 8095   2.129   3.263   2.236
 2690SOL     OW 8096   1.967   2.875   3.588
 2690SOL    HW1 8097   1.890   2.842   3.642
 2690SOL    HW2 8098   2.052   2.845   3.630
 2691SOL     OW 8099   2.534   2.065   3.351
 2691SOL    HW1 8100   2.624   2.049   3.311
 2691SOL    HW2 8101   2.542   2.070   3.450
 2692SOL     OW 8102   1.937   2.207   1.895
 2692SOL    HW1 8103   1.845   2.179   1.866
 2692SOL    HW2 8104   1.968   2.284   1.839
 2693SOL     OW 8105   3.302   2.718   3.260
 2693SOL    HW1 8106   3.245   2.770   3.197
 2693SOL    HW2 8107   3.398   2.730   3.236
 2694SOL     OW 8108   1.934   2.028   2.180
 2694SOL    HW1 8109   1.917   2.111   2.126
 2694SOL    HW2 8110   2.024   1.991   2.158
 2695SOL     OW 8111   3.045   3.197   1.981
 2695SOL    HW1 8112   2.946   3.186   1.983
 2695SOL    HW2 8113   3.079   3.212   2.074
 2696SOL     OW 8114   2.475   2.704   3.293
 2696SOL    HW1 8115   2.531   2.785   3.276
 2696SOL    HW2 8116   2.534   2.624   3.296
 2697SOL     OW 8117   3.355   3.629   2.821
 2697SOL    HW1 8118   3.388   3.693   2.752
 2697SOL    HW2 8119   3.421   3.623   2.896
 2698SOL     OW 8120   2.578   2.427   3.570
 2698SOL    HW1 8121   2.597   2.492   3.644
 2698SOL    HW2 8122   2.638   2.347   3.579
 2699SOL     OW 8123   3.312   3.082   3.495
 2699SOL    HW1 8124   3.303   3.072   3.594
 2699SOL    HW2 8125   3.408   3.075   3.469
 2700SOL     OW 8126   2.252   3.603   3.422
 2700SOL    HW1 8127   2.161   3.644   3.420
 2700SOL    HW2 8128   2.245   3.509   3.454
 2701SOL     OW 8129   3.536   2.745   3.116
 2701SOL    HW1 8130   3.509   2.656   3.079
 2701SOL    HW2 8131   3.537   2.813   3.043
 2702SOL     OW 8132   3.087   2.187   2.311
 2702SOL    HW1 8133   3.152   2.113   2.300
 2702SOL    HW2 8134   3.107   2.237   2.395
 2703SOL     OW 8135   3.639   2.204   3.504
 2703SOL    HW1 8136   3.622   2.235   3.410
 2703SOL    HW2 8137   3.555   2.167   3.542
 2704SOL     OW 8138   3.592   2.796   3.379
 2704SOL    HW1 8139   3.630   2.887   3.394
 2704SOL    HW2 8140   3.584   2.779   3.280
 2705SOL     OW 8141   2.721   3.236   1.878
 2705SOL    HW1 8142   2.675   3.251   1.966
 2705SOL    HW2 8143   2.765   3.321   1.848
 2706SOL     OW 8144   2.523   3.652   2.815
 2706SOL    HW1 8145   2.477   3.740   2.802
 2706SOL    HW2 8146   2.622   3.664   2.808
 2707SOL     OW 8147   2.945   2.846   1.949
 2707SOL    HW1 8148   2.922   2.899   1.867
 2707SOL    HW2 8149   3.026   2.790   1.930
 2708SOL     OW 8150   3.723   3.431   2.713
 2708SOL    HW1 8151   3.652   3.419   2.643
 2708SOL    HW2 8152   3.724   3.352   2.773
 2709SOL     OW 8153   2.083   3.176   3.706
 2709SOL    HW1 8154   2.018   3.103   3.685
 2709SOL    HW2 8155   2.087   3.190   3.804
 2710SOL     OW 8156   1.941   3.102   2.515
 2710SOL    HW1 8157   1.940   3.055   2.603
 2710SOL    HW2 8158   2.023   3.074   2.464
 2711SOL     OW 8159   2.534   3.253   3.486
 2711SOL    HW1 8160   2.456   3.203   3.524
 2711SOL    HW2 8161   2.531   3.348   3.517
 2712SOL     OW 8162   3.686   2.054   3.089
 2712SOL    HW1 8163   3.682   1.964   3.133
 2712SOL    HW2 8164   3.689   2.043   2.990
 2713SOL     OW 8165   2.290   2.286   2.382
 2713SOL    HW1 8166   2.320   2.214   2.320
 2713SOL    HW2 8167   2.251   2.246   2.465
 2714SOL     OW 8168   3.567   3.349   2.966
 2714SOL    HW1 8169   3.474   3.324   2.939
 2714SOL    HW2 8170   3.593   3.299   3.048
 2715SOL     OW 8171   2.179   2.409   3.142
 2715SOL    HW1 8172   2.217   2.350   3.214
 2715SOL    HW2 8173   2.219   2.383   3.054
 2716SOL     OW 8174   2.674   3.448   2.549
 2716SOL    HW1 8175   2.706   3.458   2.455
 2716SOL    HW2 8176   2.595   3.386   2.551
 2717SOL     OW 8177   3.286   2.076   2.974
 2717SOL    HW1 8178   3.338   2.011   3.029
 2717SOL    HW2 8179   3.237   2.139   3.035
 2718SOL     OW 8180   2.863   1.896   3.016
 2718SOL    HW1 8181   2.800   1.824   2.985
 2718SOL    HW2 8182   2.956   1.860   3.016
 2719SOL     OW 8183   2.632   3.192   2.163
 2719SOL    HW1 8184   2.586   3.105   2.180
 2719SOL    HW2 8185   2.723   3.189   2.204
 2720SOL     OW 8186   2.480   3.429   3.146
 2720SOL    HW1 8187   2.475   3.511   3.203
 2720SOL    HW2 8188   2.569   3.426   3.101
 2721SOL     OW 8189   3.214   1.914   2.030
 2721SOL    HW1 8190   3.249   1.873   1.946
 2721SOL    HW2 8191   3.124   1.876   2.050
 2722SOL     OW 8192   3.455   2.083   2.744
 2722SOL    HW1 8193   3.371   2.082   2.798
 2722SOL    HW2 8194   3.457   2.166   2.688
 2723SOL     OW 8195   1.901   2.939   2.162
 2723SOL    HW1 8196   2.000   2.928   2.153
 2723SOL    HW2 8197   1.861   2.853   2.194
 2724SOL     OW 8198   2.737   3.508   2.199
 2724SOL    HW1 8199   2.660   3.473   2.145
 2724SOL    HW2 8200   2.705   3.579   2.261
 2725SOL     OW 8201   2.092   2.490   3.837
 2725SOL    HW1 8202   1.999   2.488   3.874
 2725SOL    HW2 8203   2.093   2.451   3.745
 2726SOL     OW 8204   2.087   2.137   4.720
 2726SOL    HW1 8205   2.122   2.120   4.812
 2726SOL    HW2 8206   1.999   2.092   4.708
 2727SOL     OW 8207   1.881   2.230   4.371
 2727SOL    HW1 8208   1.799   2.273   4.410
 2727SOL    HW2 8209   1.853   2.157   4.308
 2728SOL     OW 8210   2.431   3.137   4.889
 2728SOL    HW1 8211   2.338   3.130   4.852
 2728SOL    HW2 8212   2.442   3.226   4.933
 2729SOL     OW 8213   3.417   3.373   4.427
 2729SOL    HW1 8214   3.360   3.357   4.508
 2729SOL    HW2 8215   3.358   3.383   4.347
 2730SOL     OW 8216   2.997   2.565   4.441
 2730SOL    HW1 8217   3.054   2.643   4.416
 2730SOL    HW2 8218   2.937   2.591   4.517
 2731SOL     OW 8219   3.617   2.469   3.955
 2731SOL    HW1 8220   3.605   2.456   3.856
 2731SOL    HW2 8221   3.587   2.388   4.004
 2732SOL     OW 8222   2.630   3.006   4.747
 2732SOL    HW1 8223   2.552   3.023   4.807
 2732SOL    HW2 8224   2.664   3.093   4.711
 2733SOL     OW 8225   2.547   2.874   4.389
 2733SOL    HW1 8226   2.616   2.858   4.459
 2733SOL    HW2 8227   2.474   2.931   4.427
 2734SOL     OW 8228   2.197   3.297   4.785
 2734SOL    HW1 8229   2.119   3.266   4.732
 2734SOL    HW2 8230   2.255   3.355   4.728
 2735SOL     OW 8231   3.322   3.367   5.063
 2735SOL    HW1 8232   3.346   3.461   5.089
 2735SOL    HW2 8233   3.306   3.313   5.145
 2736SOL     OW 8234   2.300   2.254   5.223
 2736SOL    HW1 8235   2.382   2.198   5.232
 2736SOL    HW2 8236   2.219   2.196   5.227
 2737SOL     OW 8237   3.465   2.309   4.461
 2737SOL    HW1 8238   3.391   2.355   4.411
 2737SOL    HW2 8239   3.516   2.377   4.514
 2738SOL     OW 8240   2.093   3.575   4.207
 2738SOL    HW1 8241   2.127   3.652   4.261
 2738SOL    HW2 8242   2.137   3.575   4.117
 2739SOL     OW 8243   2.092   3.296   4.262
 2739SOL    HW1 8244   2.066   3.392   4.262
 2739SOL    HW2 8245   2.021   3.242   4.307
 2740SOL     OW 8246   2.102   2.953   4.610
 2740SOL    HW1 8247   2.116   2.869   4.662
 2740SOL    HW2 8248   2.047   3.017   4.665
 2741SOL     OW 8249   2.482   3.648   5.163
 2741SOL    HW1 8250   2.390   3.631   5.198
 2741SOL    HW2 8251   2.510   3.740   5.189
 2742SOL     OW 8252   2.468   2.826   3.847
 2742SOL    HW1 8253   2.475   2.910   3.793
 2742SOL    HW2 8254   2.514   2.839   3.935
 2743SOL     OW 8255   3.456   1.976   5.204
 2743SOL    HW1 8256   3.438   2.043   5.132
 2743SOL    HW2 8257   3.453   2.022   5.293
 2744SOL     OW 8258   1.984   2.505   4.287
 2744SOL    HW1 8259   1.939   2.417   4.304
 2744SOL    HW2 8260   1.983   2.559   4.371
 2745SOL     OW 8261   3.704   3.629   4.083
 2745SOL    HW1 8262   3.758   3.600   4.163
 2745SOL    HW2 8263   3.734   3.719   4.054
 2746SOL     OW 8264   1.889   3.458   3.841
 2746SOL    HW1 8265   1.870   3.362   3.862
 2746SOL    HW2 8266   1.856   3.516   3.916
 2747SOL     OW 8267   3.551   2.784   4.336
 2747SOL    HW1 8268   3.646   2.755   4.344
 2747SOL    HW2 8269   3.543   2.849   4.261
 2748SOL     OW 8270   3.503   2.970   4.156
 2748SOL    HW1 8271   3.589   2.972   4.104
 2748SOL    HW2 8272   3.517   3.017   4.244
 2749SOL     OW 8273   2.475   3.227   4.450
 2749SOL    HW1 8274   2.426   3.140   4.459
 2749SOL    HW2 8275   2.452   3.270   4.363
 2750SOL     OW 8276   2.671   1.866   4.226
 2750SOL    HW1 8277   2.711   1.957   4.217
 2750SOL    HW2 8278   2.571   1.874   4.232
 2751SOL     OW 8279   2.059   2.838   4.988
 2751SOL    HW1 8280   2.148   2.793   4.974
 2751SOL    HW2 8281   1.986   2.773   4.969
 2752SOL     OW 8282   3.387   2.861   3.914
 2752SOL    HW1 8283   3.324   2.785   3.927
 2752SOL    HW2 8284   3.435   2.879   4.000
 2753SOL     OW 8285   2.179   2.113   5.525
 2753SOL    HW1 8286   2.250   2.184   5.531
 2753SOL    HW2 8287   2.091   2.152   5.553
 2754SOL     OW 8288   3.328   3.279   4.677
 2754SOL    HW1 8289   3.269   3.285   4.757
 2754SOL    HW2 8290   3.313   3.191   4.631
 2755SOL     OW 8291   3.529   3.576   4.296
 2755SOL    HW1 8292   3.488   3.553   4.208
 2755SOL    HW2 8293   3.511   3.502   4.361
 2756SOL     OW 8294   2.460   2.591   3.994
 2756SOL    HW1 8295   2.484   2.660   3.926
 2756SOL    HW2 8296   2.382   2.624   4.048
 2757SOL     OW 8297   3.143   2.207   4.668
 2757SOL    HW1 8298   3.057   2.157   4.655
 2757SOL    HW2 8299   3.205   2.153   4.724
 2758SOL     OW 8300   3.438   3.524   4.031
 2758SOL    HW1 8301   3.527   3.570   4.034
 2758SOL    HW2 8302   3.417   3.500   3.936
 2759SOL     OW 8303   2.669   2.467   5.189
 2759SOL    HW1 8304   2.622   2.464   5.278
 2759SOL    HW2 8305   2.618   2.412   5.123
 2760SOL     OW 8306   2.853   2.272   4.966
 2760SOL    HW1 8307   2.776   2.306   5.020
 2760SOL    HW2 8308   2.819   2.221   4.887
 2761SOL     OW 8309   2.903   2.563   4.153
 2761SOL    HW1 8310   2.929   2.559   4.249
 2761SOL    HW2 8311   2.818   2.512   4.139
 2762SOL     OW 8312   1.938   2.673   4.513
 2762SOL    HW1 8313   2.037   2.661   4.522
 2762SOL    HW2 8314   1.914   2.768   4.534
 2763SOL     OW 8315   1.992   3.683   5.295
 2763SOL    HW1 8316   1.982   3.668   5.394
 2763SOL    HW2 8317   1.906   3.719   5.259
 2764SOL     OW 8318   2.727   2.210   3.919
 2764SOL    HW1 8319   2.786   2.273   3.870
 2764SOL    HW2 8320   2.746   2.116   3.890
 2765SOL     OW 8321   3.224   3.006   4.269
 2765SOL    HW1 8322   3.307   2.977   4.221
 2765SOL    HW2 8323   3.175   3.073   4.213
 2766SOL     OW 8324   2.412   2.058   4.609
 2766SOL    HW1 8325   2.407   2.053   4.709
 2766SOL    HW2 8326   2.414   2.154   4.580
 2767SOL     OW 8327   2.870   3.318   4.201
 2767SOL    HW1 8328   2.824   3.390   4.149
 2767SOL    HW2 8329   2.866   3.338   4.299
 2768SOL     OW 8330   2.213   3.663   4.577
 2768SOL    HW1 8331   2.263   3.577   4.583
 2768SOL    HW2 8332   2.278   3.740   4.574
 2769SOL     OW 8333   3.657   2.928   4.597
 2769SOL    HW1 8334   3.595   2.913   4.521
 2769SOL    HW2 8335   3.605   2.939   4.682
 2770SOL     OW 8336   2.183   2.805   3.966
 2770SOL    HW1 8337   2.265   2.844   3.924
 2770SOL    HW2 8338   2.156   2.723   3.917
 2771SOL     OW 8339   3.320   2.597   4.452
 2771SOL    HW1 8340   3.315   2.532   4.527
 2771SOL    HW2 8341   3.400   2.656   4.465
 2772SOL     OW 8342   2.973   3.638   3.961
 2772SOL    HW1 8343   2.913   3.576   4.011
 2772SOL    HW2 8344   3.004   3.594   3.876
 2773SOL     OW 8345   3.494   3.239   3.805
 2773SOL    HW1 8346   3.462   3.333   3.795
 2773SOL    HW2 8347   3.418   3.176   3.793
 2774SOL     OW 8348   2.326   3.605   4.047
 2774SOL    HW1 8349   2.359   3.644   4.133
 2774SOL    HW2 8350   2.402   3.598   3.982
 2775SOL     OW 8351   3.262   1.969   4.150
 2775SOL    HW1 8352   3.238   1.932   4.060
 2775SOL    HW2 8353   3.361   1.985   4.154
 2776SOL     OW 8354   2.111   3.647   4.965
 2776SOL    HW1 8355   2.168   3.582   5.015
 2776SOL    HW2 8356   2.095   3.614   4.872
 2777SOL     OW 8357   2.802   3.560   4.628
 2777SOL    HW1 8358   2.882   3.503   4.649
 2777SOL    HW2 8359   2.753   3.520   4.551
 2778SOL     OW 8360   2.244   2.562   4.204
 2778SOL    HW1 8361   2.289   2.472   4.201
 2778SOL    HW2 8362   2.150   2.551   4.237
 2779SOL     OW 8363   2.476   1.984   3.841
 2779SOL    HW1 8364   2.574   1.962   3.848
 2779SOL    HW2 8365   2.445   1.967   3.748
 2780SOL     OW 8366   2.750   3.376   4.919
 2780SOL    HW1 8367   2.727   3.351   4.825
 2780SOL    HW2 8368   2.811   3.307   4.958
 2781SOL     OW 8369   2.665   3.264   4.648
 2781SOL    HW1 8370   2.755   3.278   4.606
 2781SOL    HW2 8371   2.594   3.266   4.577
 2782SOL     OW 8372   2.784   2.365   4.623
 2782SOL    HW1 8373   2.759   2.356   4.527
 2782SOL    HW2 8374   2.832   2.283   4.654
 2783SOL     OW 8375   2.401   1.926   4.236
 2783SOL    HW1 8376   2.320   1.927   4.294
 2783SOL    HW2 8377   2.404   2.009   4.181
 2784SOL     OW 8378   3.296   3.050   3.765
 2784SOL    HW1 8379   3.328   2.974   3.822
 2784SOL    HW2 8380   3.204   3.077   3.795
 2785SOL     OW 8381   2.159   1.897   3.895
 2785SOL    HW1 8382   2.208   1.981   3.874
 2785SOL    HW2 8383   2.221   1.832   3.940
 2786SOL     OW 8384   2.797   2.098   4.204
 2786SOL    HW1 8385   2.749   2.139   4.126
 2786SOL    HW2 8386   2.896   2.096   4.185
 2787SOL     OW 8387   3.089   3.432   4.517
 2787SOL    HW1 8388   3.110   3.506   4.452
 2787SOL    HW2 8389   3.157   3.432   4.590
 2788SOL     OW 8390   2.321   3.014   4.465
 2788SOL    HW1 8391   2.250   2.987   4.530
 2788SOL    HW2 8392   2.295   2.986   4.372
 2789SOL     OW 8393   3.133   3.659   4.315
 2789SOL    HW1 8394   3.177   3.723   4.251
 2789SOL    HW2 8395   3.083   3.711   4.385
 2790SOL     OW 8396   2.894   2.411   3.740
 2790SOL    HW1 8397   2.853   2.493   3.701
 2790SOL    HW2 8398   2.958   2.437   3.813
 2791SOL     OW 8399   1.940   2.418   5.110
 2791SOL    HW1 8400   2.032   2.417   5.069
 2791SOL    HW2 8401   1.934   2.492   5.177
 2792SOL     OW 8402   2.423   2.084   4.871
 2792SOL    HW1 8403   2.461   2.000   4.908
 2792SOL    HW2 8404   2.335   2.103   4.915
 2793SOL     OW 8405   2.728   2.316   4.366
 2793SOL    HW1 8406   2.696   2.388   4.304
 2793SOL    HW2 8407   2.752   2.235   4.313
 2794SOL     OW 8408   2.879   1.901   4.477
 2794SOL    HW1 8409   2.807   1.906   4.408
 2794SOL    HW2 8410   2.855   1.832   4.546
 2795SOL     OW 8411   3.291   3.035   4.591
 2795SOL    HW1 8412   3.236   2.951   4.584
 2795SOL    HW2 8413   3.317   3.064   4.499
 2796SOL     OW 8414   3.328   2.452   4.716
 2796SOL    HW1 8415   3.298   2.357   4.723
 2796SOL    HW2 8416   3.401   2.468   4.782
 2797SOL     OW 8417   3.719   2.695   4.101
 2797SOL    HW1 8418   3.761   2.631   4.165
 2797SOL    HW2 8419   3.681   2.644   4.023
 2798SOL     OW 8420   2.350   3.247   3.898
 2798SOL    HW1 8421   2.263   3.232   3.945
 2798SOL    HW2 8422   2.333   3.273   3.803
 2799SOL     OW 8423   3.526   3.142   4.381
 2799SOL    HW1 8424   3.625   3.150   4.395
 2799SOL    HW2 8425   3.481   3.226   4.412
 2800SOL     OW 8426   3.252   2.437   3.802
 2800SOL    HW1 8427   3.198   2.416   3.883
 2800SOL    HW2 8428   3.343   2.396   3.811
 2801SOL     OW 8429   2.389   2.118   4.052
 2801SOL    HW1 8430   2.416   2.059   3.977
 2801SOL    HW2 8431   2.389   2.213   4.021
 2802SOL     OW 8432   2.926   3.209   5.064
 2802SOL    HW1 8433   2.846   3.186   5.119
 2802SOL    HW2 8434   3.009   3.183   5.113
 2803SOL     OW 8435   2.973   3.057   4.824
 2803SOL    HW1 8436   2.933   3.101   4.905
 2803SOL    HW2 8437   2.932   3.094   4.741
 2804SOL     OW 8438   3.500   2.961   4.803
 2804SOL    HW1 8439   3.505   3.042   4.862
 2804SOL    HW2 8440   3.414   2.963   4.752
 2805SOL     OW 8441   2.777   1.951   5.126
 2805SOL    HW1 8442   2.802   1.931   5.031
 2805SOL    HW2 8443   2.849   2.007   5.168
 2806SOL     OW 8444   2.567   2.912   4.092
 2806SOL    HW1 8445   2.553   2.919   4.191
 2806SOL    HW2 8446   2.651   2.861   4.074
 2807SOL     OW 8447   2.272   2.675   4.975
 2807SOL    HW1 8448   2.358   2.687   5.025
 2807SOL    HW2 8449   2.230   2.588   5.002
 2808SOL     OW 8450   3.136   2.248   4.986
 2808SOL    HW1 8451   3.157   2.322   5.050
 2808SOL    HW2 8452   3.047   2.265   4.943
 2809SOL     OW 8453   1.926   3.426   5.055
 2809SOL    HW1 8454   1.880   3.508   5.021
 2809SOL    HW2 8455   2.024   3.445   5.064
 2810SOL     OW 8456   2.229   2.962   4.225
 2810SOL    HW1 8457   2.222   3.045   4.169
 2810SOL    HW2 8458   2.233   2.882   4.165
 2811SOL     OW 8459   2.428   2.399   4.589
 2811SOL    HW1 8460   2.440   2.465   4.515
 2811SOL    HW2 8461   2.474   2.433   4.672
 2812SOL     OW 8462   3.114   3.210   4.112
 2812SOL    HW1 8463   3.164   3.287   4.152
 2812SOL    HW2 8464   3.019   3.212   4.144
 2813SOL     OW 8465   3.134   3.307   4.866
 2813SOL    HW1 8466   3.181   3.320   4.953
 2813SOL    HW2 8467   3.068   3.233   4.875
 2814SOL     OW 8468   3.444   2.501   4.196
 2814SOL    HW1 8469   3.413   2.562   4.269
 2814SOL    HW2 8470   3.494   2.553   4.127
 2815SOL     OW 8471   2.216   3.372   5.053
 2815SOL    HW1 8472   2.195   3.328   4.966
 2815SOL    HW2 8473   2.313   3.398   5.056
 2816SOL     OW 8474   2.264   2.613   5.322
 2816SOL    HW1 8475   2.332   2.668   5.275
 2816SOL    HW2 8476   2.304   2.525   5.349
 2817SOL     OW 8477   3.449   2.641   5.394
 2817SOL    HW1 8478   3.357   2.679   5.389
 2817SOL    HW2 8479   3.509   2.688   5.329
 2818SOL     OW 8480   2.435   2.732   4.753
 2818SOL    HW1 8481   2.479   2.821   4.744
 2818SOL    HW2 8482   2.372   2.732   4.830
 2819SOL     OW 8483   3.222   2.724   4.769
 2819SOL    HW1 8484   3.147   2.724   4.703
 2819SOL    HW2 8485   3.259   2.632   4.778
 2820SOL     OW 8486   3.071   2.387   3.999
 2820SOL    HW1 8487   3.084   2.303   4.053
 2820SOL    HW2 8488   3.042   2.461   4.059
 2821SOL     OW 8489   2.169   2.075   4.955
 2821SOL    HW1 8490   2.146   2.112   5.045
 2821SOL    HW2 8491   2.139   1.980   4.949
 2822SOL     OW 8492   1.899   3.172   5.006
 2822SOL    HW1 8493   1.952   3.123   5.074
 2822SOL    HW2 8494   1.921   3.270   5.011
 2823SOL     OW 8495   2.594   2.496   4.788
 2823SOL    HW1 8496   2.653   2.470   4.712
 2823SOL    HW2 8497   2.566   2.592   4.777
 2824SOL     OW 8498   2.169   1.925   4.342
 2824SOL    HW1 8499   2.158   2.019   4.375
 2824SOL    HW2 8500   2.164   1.862   4.419
 2825SOL     OW 8501   3.484   2.229   4.098
 2825SOL    HW1 8502   3.486   2.153   4.162
 2825SOL    HW2 8503   3.436   2.306   4.138
 2826SOL     OW 8504   2.885   2.628   4.690
 2826SOL    HW1 8505   2.900   2.649   4.786
 2826SOL    HW2 8506   2.855   2.533   4.681
 2827SOL     OW 8507   2.842   3.435   5.424
 2827SOL    HW1 8508   2.822   3.479   5.336
 2827SOL    HW2 8509   2.881   3.344   5.408
 2828SOL     OW 8510   3.402   2.136   3.849
 2828SOL    HW1 8511   3.341   2.061   3.872
 2828SOL    HW2 8512   3.424   2.188   3.932
 2829SOL     OW 8513   3.165   2.700   3.766
 2829SOL    HW1 8514   3.199   2.607   3.781
 2829SOL    HW2 8515   3.183   2.727   3.671
 2830SOL     OW 8516   2.930   3.195   4.573
 2830SOL    HW1 8517   2.937   3.111   4.518
 2830SOL    HW2 8518   2.992   3.264   4.537
 2831SOL     OW 8519   2.181   2.672   4.673
 2831SOL    HW1 8520   2.274   2.708   4.678
 2831SOL    HW2 8521   2.175   2.587   4.725
 2832SOL     OW 8522   2.201   2.371   4.730
 2832SOL    HW1 8523   2.149   2.288   4.713
 2832SOL    HW2 8524   2.278   2.376   4.666
 2833SOL     OW 8525   3.000   2.242   5.402
 2833SOL    HW1 8526   2.955   2.305   5.466
 2833SOL    HW2 8527   3.093   2.273   5.385
 2834SOL     OW 8528   3.022   2.069   5.201
 2834SOL    HW1 8529   3.022   2.133   5.278
 2834SOL    HW2 8530   3.050   2.117   5.118
 2835SOL     OW 8531   1.870   3.188   3.924
 2835SOL    HW1 8532   1.777   3.209   3.893
 2835SOL    HW2 8533   1.880   3.089   3.937
 2836SOL     OW 8534   1.950   3.663   4.651
 2836SOL    HW1 8535   1.908   3.577   4.624
 2836SOL    HW2 8536   2.044   3.666   4.617
 2837SOL     OW 8537   2.366   3.430   4.634
 2837SOL    HW1 8538   2.432   3.504   4.643
 2837SOL    HW2 8539   2.410   3.351   4.592
 2838SOL     OW 8540   2.864   2.658   4.962
 2838SOL    HW1 8541   2.905   2.626   5.048
 2838SOL    HW2 8542   2.768   2.631   4.959
 2839SOL     OW 8543   1.902   2.406   4.838
 2839SOL    HW1 8544   1.987   2.373   4.797
 2839SOL    HW2 8545   1.915   2.421   4.936
 2840SOL     OW 8546   2.677   2.434   4.049
 2840SOL    HW1 8547   2.684   2.345   4.003
 2840SOL    HW2 8548   2.583   2.468   4.041
 2841SOL     OW 8549   3.519   2.466   4.930
 2841SOL    HW1 8550   3.481   2.397   4.992
 2841SOL    HW2 8551   3.601   2.430   4.886
 2842SOL     OW 8552   2.533   2.326   4.993
 2842SOL    HW1 8553   2.499   2.237   4.963
 2842SOL    HW2 8554   2.559   2.380   4.913
 2843SOL     OW 8555   2.792   3.540   5.189
 2843SOL    HW1 8556   2.768   3.522   5.094
 2843SOL    HW2 8557   2.822   3.634   5.199
 2844SOL     OW 8558   2.335   2.362   3.915
 2844SOL    HW1 8559   2.396   2.442   3.919
 2844SOL    HW2 8560   2.240   2.393   3.922
 2845SOL     OW 8561   2.021   2.999   5.190
 2845SOL    HW1 8562   2.043   2.938   5.266
 2845SOL    HW2 8563   2.031   2.950   5.104
 2846SOL     OW 8564   3.209   2.921   4.958
 2846SOL    HW1 8565   3.233   2.858   4.884
 2846SOL    HW2 8566   3.119   2.961   4.940
 2847SOL     OW 8567   3.164   2.717   4.033
 2847SOL    HW1 8568   3.078   2.686   4.075
 2847SOL    HW2 8569   3.160   2.703   3.934
 2848SOL     OW 8570   3.621   3.609   4.878
 2848SOL    HW1 8571   3.682   3.639   4.805
 2848SOL    HW2 8572   3.583   3.520   4.856
 2849SOL     OW 8573   3.114   3.593   4.852
 2849SOL    HW1 8574   3.198   3.598   4.798
 2849SOL    HW2 8575   3.091   3.497   4.870
 2850SOL     OW 8576   1.945   3.120   4.746
 2850SOL    HW1 8577   1.940   3.119   4.846
 2850SOL    HW2 8578   1.862   3.079   4.708
 2851SOL     OW 8579   3.588   1.997   4.247
 2851SOL    HW1 8580   3.661   1.980   4.180
 2851SOL    HW2 8581   3.557   1.910   4.285
 2852SOL     OW 8582   3.250   3.435   4.201
 2852SOL    HW1 8583   3.317   3.447   4.127
 2852SOL    HW2 8584   3.210   3.524   4.224
 2853SOL     OW 8585   3.142   2.789   4.396
 2853SOL    HW1 8586   3.202   2.708   4.398
 2853SOL    HW2 8587   3.182   2.858   4.336
 2854SOL     OW 8588   2.534   3.478   3.878
 2854SOL    HW1 8589   2.543   3.488   3.779
 2854SOL    HW2 8590   2.494   3.389   3.899
 2855SOL     OW 8591   3.512   3.582   5.118
 2855SOL    HW1 8592   3.565   3.592   5.034
 2855SOL    HW2 8593   3.485   3.672   5.152
 2856SOL     OW 8594   3.703   2.037   4.687
 2856SOL    HW1 8595   3.742   1.952   4.651
 2856SOL    HW2 8596   3.605   2.039   4.668
 2857SOL     OW 8597   2.125   2.188   4.444
 2857SOL    HW1 8598   2.046   2.239   4.410
 2857SOL    HW2 8599   2.116   2.173   4.542
 2858SOL     OW 8600   3.056   3.474   3.755
 2858SOL    HW1 8601   3.062   3.381   3.792
 2858SOL    HW2 8602   2.997   3.474   3.675
 2859SOL     OW 8603   2.684   2.864   5.096
 2859SOL    HW1 8604   2.724   2.863   5.004
 2859SOL    HW2 8605   2.694   2.956   5.136
 2860SOL     OW 8606   2.778   2.772   4.015
 2860SOL    HW1 8607   2.841   2.810   3.947
 2860SOL    HW2 8608   2.818   2.689   4.054
 2861SOL     OW 8609   3.366   3.469   3.768
 2861SOL    HW1 8610   3.274   3.506   3.775
 2861SOL    HW2 8611   3.404   3.489   3.678
 2862SOL     OW 8612   2.234   3.150   5.214
 2862SOL    HW1 8613   2.221   3.243   5.180
 2862SOL    HW2 8614   2.150   3.098   5.201
 2863SOL     OW 8615   3.476   3.154   5.013
 2863SOL    HW1 8616   3.536   3.157   5.093
 2863SOL    HW2 8617   3.401   3.218   5.026
 2864SOL     OW 8618   2.901   2.960   4.420
 2864SOL    HW1 8619   2.831   2.913   4.474
 2864SOL    HW2 8620   2.960   2.892   4.377
 2865SOL     OW 8621   2.876   2.098   4.695
 2865SOL    HW1 8622   2.868   2.062   4.602
 2865SOL    HW2 8623   2.874   2.022   4.760
 2866SOL     OW 8624   2.452   3.349   4.215
 2866SOL    HW1 8625   2.494   3.291   4.145
 2866SOL    HW2 8626   2.408   3.428   4.171
 2867SOL     OW 8627   3.571   2.247   5.105
 2867SOL    HW1 8628   3.644   2.316   5.109
 2867SOL    HW2 8629   3.599   2.172   5.046
 2868SOL     OW 8630   2.117   3.210   4.014
 2868SOL    HW1 8631   2.021   3.211   3.987
 2868SOL    HW2 8632   2.129   3.263   4.098
 2869SOL     OW 8633   1.937   2.207   3.757
 2869SOL    HW1 8634   1.845   2.179   3.728
 2869SOL    HW2 8635   1.968   2.284   3.701
 2870SOL     OW 8636   3.302   2.718   5.122
 2870SOL    HW1 8637   3.245   2.770   5.059
 2870SOL    HW2 8638   3.398   2.730   5.098
 2871SOL     OW 8639   1.934   2.028   4.042
 2871SOL    HW1 8640   1.917   2.111   3.988
 2871SOL    HW2 8641   2.024   1.991   4.020
 2872SOL     OW 8642   3.045   3.197   3.843
 2872SOL    HW1 8643   2.946   3.186   3.845
 2872SOL    HW2 8644   3.079   3.212   3.936
 2873SOL     OW 8645   2.475   2.704   5.155
 2873SOL    HW1 8646   2.531   2.785   5.138
 2873SOL    HW2 8647   2.534   2.624   5.158
 2874SOL     OW 8648   3.355   3.629   4.683
 2874SOL    HW1 8649   3.388   3.693   4.614
 2874SOL    HW2 8650   3.421   3.623   4.758
 2875SOL     OW 8651   2.252   3.603   5.284
 2875SOL    HW1 8652   2.161   3.644   5.282
 2875SOL    HW2 8653   2.245   3.509   5.316
 2876SOL     OW 8654   3.536   2.745   4.978
 2876SOL    HW1 8655   3.509   2.656   4.941
 2876SOL    HW2 8656   3.537   2.813   4.905
 2877SOL     OW 8657   3.087   2.187   4.173
 2877SOL    HW1 8658   3.152   2.113   4.162
 2877SOL    HW2 8659   3.107   2.237   4.257
 2878SOL     OW 8660   2.456   2.607   4.376
 2878SOL    HW1 8661   2.506   2.692   4.357
 2878SOL    HW2 8662   2.368   2.609   4.328
 2879SOL     OW 8663   3.592   2.796   5.241
 2879SOL    HW1 8664   3.630   2.887   5.256
 2879SOL    HW2 8665   3.584   2.779   5.142
 2880SOL     OW 8666   2.721   3.236   3.740
 2880SOL    HW1 8667   2.675   3.251   3.828
 2880SOL    HW2 8668   2.765   3.321   3.710
 2881SOL     OW 8669   2.523   3.652   4.677
 2881SOL    HW1 8670   2.477   3.740   4.664
 2881SOL    HW2 8671   2.622   3.664   4.670
 2882SOL     OW 8672   2.721   2.818   4.585
 2882SOL    HW1 8673   2.775   2.749   4.633
 2882SOL    HW2 8674   2.689   2.887   4.651
 2883SOL     OW 8675   2.945   2.846   3.811
 2883SOL    HW1 8676   2.922   2.899   3.729
 2883SOL    HW2 8677   3.026   2.790   3.792
 2884SOL     OW 8678   3.723   3.431   4.575
 2884SOL    HW1 8679   3.652   3.419   4.505
 2884SOL    HW2 8680   3.724   3.352   4.635
 2885SOL     OW 8681   1.941   3.102   4.377
 2885SOL    HW1 8682   1.940   3.055   4.465
 2885SOL    HW2 8683   2.023   3.074   4.326
 2886SOL     OW 8684   3.686   2.054   4.951
 2886SOL    HW1 8685   3.682   1.964   4.995
 2886SOL    HW2 8686   3.689   2.043   4.852
 2887SOL     OW 8687   2.290   2.286   4.244
 2887SOL    HW1 8688   2.320   2.214   4.182
 2887SOL    HW2 8689   2.251   2.246   4.327
 2888SOL     OW 8690   3.567   3.349   4.828
 2888SOL    HW1 8691   3.474   3.324   4.801
 2888SOL    HW2 8692   3.593   3.299   4.910
 2889SOL     OW 8693   2.179   2.409   5.004
 2889SOL    HW1 8694   2.217   2.350   5.076
 2889SOL    HW2 8695   2.219   2.383   4.916
 2890SOL     OW 8696   2.674   3.448   4.411
 2890SOL    HW1 8697   2.706   3.458   4.317
 2890SOL    HW2 8698   2.595   3.386   4.413
 2891SOL     OW 8699   3.286   2.076   4.836
 2891SOL    HW1 8700   3.338   2.011   4.891
 2891SOL    HW2 8701   3.237   2.139   4.897
 2892SOL     OW 8702   2.863   1.896   4.878
 2892SOL    HW1 8703   2.800   1.824   4.847
 2892SOL    HW2 8704   2.956   1.860   4.878
 2893SOL     OW 8705   2.632   3.192   4.025
 2893SOL    HW1 8706   2.586   3.105   4.042
 2893SOL    HW2 8707   2.723   3.189   4.066
 2894SOL     OW 8708   2.480   3.429   5.008
 2894SOL    HW1 8709   2.475   3.511   5.065
 2894SOL    HW2 8710   2.569   3.426   4.963
 2895SOL     OW 8711   3.214   1.914   3.892
 2895SOL    HW1 8712   3.249   1.873   3.808
 2895SOL    HW2 8713   3.124   1.876   3.912
 2896SOL     OW 8714   3.162   2.315   4.415
 2896SOL    HW1 8715   3.103   2.395   4.419
 2896SOL    HW2 8716   3.177   2.280   4.508
 2897SOL     OW 8717   3.455   2.083   4.606
 2897SOL    HW1 8718   3.371   2.082   4.660
 2897SOL    HW2 8719   3.457   2.166   4.550
 2898SOL     OW 8720   1.901   2.939   4.024
 2898SOL    HW1 8721   2.000   2.928   4.015
 2898SOL    HW2 8722   1.861   2.853   4.056
 2899SOL     OW 8723   2.737   3.508   4.061
 2899SOL    HW1 8724   2.660   3.473   4.007
 2899SOL    HW2 8725   2.705   3.579   4.123
 2900SOL     OW 8726   2.092   4.352   0.113
 2900SOL    HW1 8727   1.999   4.350   0.150
 2900SOL    HW2 8728   2.093   4.313   0.021
 2901SOL     OW 8729   2.087   3.999   0.996
 2901SOL    HW1 8730   2.122   3.982   1.088
 2901SOL    HW2 8731   1.999   3.954   0.984
 2902SOL     OW 8732   1.881   4.092   0.647
 2902SOL    HW1 8733   1.799   4.135   0.686
 2902SOL    HW2 8734   1.853   4.019   0.584
 2903SOL     OW 8735   2.431   4.999   1.165
 2903SOL    HW1 8736   2.338   4.992   1.128
 2903SOL    HW2 8737   2.442   5.088   1.209
 2904SOL     OW 8738   3.417   5.235   0.703
 2904SOL    HW1 8739   3.360   5.219   0.784
 2904SOL    HW2 8740   3.358   5.245   0.623
 2905SOL     OW 8741   2.997   4.427   0.717
 2905SOL    HW1 8742   3.054   4.505   0.692
 2905SOL    HW2 8743   2.937   4.453   0.793
 2906SOL     OW 8744   3.617   4.331   0.231
 2906SOL    HW1 8745   3.605   4.318   0.132
 2906SOL    HW2 8746   3.587   4.250   0.280
 2907SOL     OW 8747   2.630   4.868   1.023
 2907SOL    HW1 8748   2.552   4.885   1.083
 2907SOL    HW2 8749   2.664   4.955   0.987
 2908SOL     OW 8750   2.712   4.522   1.823
 2908SOL    HW1 8751   2.708   4.598   1.888
 2908SOL    HW2 8752   2.734   4.558   1.732
 2909SOL     OW 8753   2.547   4.736   0.665
 2909SOL    HW1 8754   2.616   4.720   0.735
 2909SOL    HW2 8755   2.474   4.793   0.703
 2910SOL     OW 8756   2.548   4.885   1.803
 2910SOL    HW1 8757   2.608   4.964   1.817
 2910SOL    HW2 8758   2.462   4.916   1.762
 2911SOL     OW 8759   2.197   5.159   1.061
 2911SOL    HW1 8760   2.119   5.128   1.008
 2911SOL    HW2 8761   2.255   5.217   1.004
 2912SOL     OW 8762   3.322   5.229   1.339
 2912SOL    HW1 8763   3.346   5.323   1.365
 2912SOL    HW2 8764   3.306   5.175   1.421
 2913SOL     OW 8765   2.300   4.116   1.499
 2913SOL    HW1 8766   2.382   4.060   1.508
 2913SOL    HW2 8767   2.219   4.058   1.503
 2914SOL     OW 8768   3.465   4.171   0.737
 2914SOL    HW1 8769   3.391   4.217   0.687
 2914SOL    HW2 8770   3.516   4.239   0.790
 2915SOL     OW 8771   2.093   5.437   0.483
 2915SOL    HW1 8772   2.127   5.514   0.537
 2915SOL    HW2 8773   2.137   5.437   0.393
 2916SOL     OW 8774   2.989   5.065   1.690
 2916SOL    HW1 8775   3.036   5.065   1.778
 2916SOL    HW2 8776   2.941   4.978   1.679
 2917SOL     OW 8777   2.092   5.158   0.538
 2917SOL    HW1 8778   2.066   5.254   0.538
 2917SOL    HW2 8779   2.021   5.104   0.583
 2918SOL     OW 8780   2.102   4.815   0.886
 2918SOL    HW1 8781   2.116   4.731   0.938
 2918SOL    HW2 8782   2.047   4.879   0.941
 2919SOL     OW 8783   2.468   4.688   0.123
 2919SOL    HW1 8784   2.475   4.772   0.069
 2919SOL    HW2 8785   2.514   4.701   0.211
 2920SOL     OW 8786   3.456   3.838   1.480
 2920SOL    HW1 8787   3.438   3.905   1.408
 2920SOL    HW2 8788   3.453   3.884   1.569
 2921SOL     OW 8789   1.984   4.367   0.563
 2921SOL    HW1 8790   1.939   4.279   0.580
 2921SOL    HW2 8791   1.983   4.421   0.647
 2922SOL     OW 8792   1.889   5.320   0.117
 2922SOL    HW1 8793   1.870   5.224   0.138
 2922SOL    HW2 8794   1.856   5.378   0.192
 2923SOL     OW 8795   3.551   4.646   0.612
 2923SOL    HW1 8796   3.646   4.617   0.620
 2923SOL    HW2 8797   3.543   4.711   0.537
 2924SOL     OW 8798   3.503   4.832   0.432
 2924SOL    HW1 8799   3.589   4.834   0.380
 2924SOL    HW2 8800   3.517   4.879   0.520
 2925SOL     OW 8801   1.975   4.461   1.597
 2925SOL    HW1 8802   2.063   4.448   1.642
 2925SOL    HW2 8803   1.962   4.558   1.575
 2926SOL     OW 8804   2.475   5.089   0.726
 2926SOL    HW1 8805   2.426   5.002   0.735
 2926SOL    HW2 8806   2.452   5.132   0.639
 2927SOL     OW 8807   3.155   4.952   1.423
 2927SOL    HW1 8808   3.192   4.879   1.365
 2927SOL    HW2 8809   3.207   4.957   1.508
 2928SOL     OW 8810   2.671   3.728   0.502
 2928SOL    HW1 8811   2.711   3.819   0.493
 2928SOL    HW2 8812   2.571   3.736   0.508
 2929SOL     OW 8813   2.059   4.700   1.264
 2929SOL    HW1 8814   2.148   4.655   1.250
 2929SOL    HW2 8815   1.986   4.635   1.245
 2930SOL     OW 8816   3.387   4.723   0.190
 2930SOL    HW1 8817   3.324   4.647   0.203
 2930SOL    HW2 8818   3.435   4.741   0.276
 2931SOL     OW 8819   2.179   3.975   1.801
 2931SOL    HW1 8820   2.250   4.046   1.807
 2931SOL    HW2 8821   2.091   4.014   1.829
 2932SOL     OW 8822   3.328   5.141   0.953
 2932SOL    HW1 8823   3.269   5.147   1.033
 2932SOL    HW2 8824   3.313   5.053   0.907
 2933SOL     OW 8825   2.460   4.453   0.270
 2933SOL    HW1 8826   2.484   4.522   0.202
 2933SOL    HW2 8827   2.382   4.486   0.324
 2934SOL     OW 8828   3.143   4.069   0.944
 2934SOL    HW1 8829   3.057   4.019   0.931
 2934SOL    HW2 8830   3.205   4.015   1.000
 2935SOL     OW 8831   2.669   4.329   1.465
 2935SOL    HW1 8832   2.622   4.326   1.554
 2935SOL    HW2 8833   2.618   4.274   1.399
 2936SOL     OW 8834   3.256   4.193   1.674
 2936SOL    HW1 8835   3.236   4.236   1.762
 2936SOL    HW2 8836   3.334   4.131   1.683
 2937SOL     OW 8837   2.835   4.614   1.572
 2937SOL    HW1 8838   2.881   4.530   1.543
 2937SOL    HW2 8839   2.779   4.648   1.497
 2938SOL     OW 8840   2.853   4.134   1.242
 2938SOL    HW1 8841   2.776   4.168   1.296
 2938SOL    HW2 8842   2.819   4.083   1.163
 2939SOL     OW 8843   2.903   4.425   0.429
 2939SOL    HW1 8844   2.929   4.421   0.525
 2939SOL    HW2 8845   2.818   4.374   0.415
 2940SOL     OW 8846   1.938   4.535   0.789
 2940SOL    HW1 8847   2.037   4.523   0.798
 2940SOL    HW2 8848   1.914   4.630   0.810
 2941SOL     OW 8849   2.727   4.072   0.195
 2941SOL    HW1 8850   2.786   4.135   0.146
 2941SOL    HW2 8851   2.746   3.978   0.166
 2942SOL     OW 8852   3.581   4.309   1.831
 2942SOL    HW1 8853   3.555   4.398   1.795
 2942SOL    HW2 8854   3.579   4.241   1.758
 2943SOL     OW 8855   3.224   4.868   0.545
 2943SOL    HW1 8856   3.307   4.839   0.497
 2943SOL    HW2 8857   3.175   4.935   0.489
 2944SOL     OW 8858   2.412   3.920   0.885
 2944SOL    HW1 8859   2.407   3.915   0.985
 2944SOL    HW2 8860   2.414   4.016   0.856
 2945SOL     OW 8861   2.870   5.180   0.477
 2945SOL    HW1 8862   2.824   5.252   0.425
 2945SOL    HW2 8863   2.866   5.200   0.575
 2946SOL     OW 8864   3.657   4.790   0.873
 2946SOL    HW1 8865   3.595   4.775   0.797
 2946SOL    HW2 8866   3.605   4.801   0.958
 2947SOL     OW 8867   3.089   5.274   1.506
 2947SOL    HW1 8868   3.095   5.197   1.570
 2947SOL    HW2 8869   3.037   5.248   1.426
 2948SOL     OW 8870   2.183   4.667   0.242
 2948SOL    HW1 8871   2.265   4.706   0.200
 2948SOL    HW2 8872   2.156   4.585   0.193
 2949SOL     OW 8873   3.320   4.459   0.728
 2949SOL    HW1 8874   3.315   4.394   0.803
 2949SOL    HW2 8875   3.400   4.518   0.741
 2950SOL     OW 8876   2.323   4.990   1.727
 2950SOL    HW1 8877   2.273   4.991   1.641
 2950SOL    HW2 8878   2.260   4.972   1.803
 2951SOL     OW 8879   2.973   5.500   0.237
 2951SOL    HW1 8880   2.913   5.438   0.287
 2951SOL    HW2 8881   3.004   5.456   0.152
 2952SOL     OW 8882   2.064   4.009   1.498
 2952SOL    HW1 8883   1.984   4.069   1.485
 2952SOL    HW2 8884   2.054   3.960   1.584
 2953SOL     OW 8885   3.494   5.101   0.081
 2953SOL    HW1 8886   3.462   5.195   0.071
 2953SOL    HW2 8887   3.418   5.038   0.069
 2954SOL     OW 8888   3.262   3.831   0.426
 2954SOL    HW1 8889   3.238   3.794   0.336
 2954SOL    HW2 8890   3.361   3.847   0.430
 2955SOL     OW 8891   2.244   4.424   0.480
 2955SOL    HW1 8892   2.289   4.334   0.477
 2955SOL    HW2 8893   2.150   4.413   0.513
 2956SOL     OW 8894   3.409   3.946   1.729
 2956SOL    HW1 8895   3.404   3.983   1.821
 2956SOL    HW2 8896   3.337   3.877   1.717
 2957SOL     OW 8897   2.476   3.846   0.117
 2957SOL    HW1 8898   2.574   3.824   0.124
 2957SOL    HW2 8899   2.445   3.829   0.024
 2958SOL     OW 8900   2.643   3.988   1.749
 2958SOL    HW1 8901   2.710   3.927   1.792
 2958SOL    HW2 8902   2.570   4.007   1.814
 2959SOL     OW 8903   3.213   4.314   1.433
 2959SOL    HW1 8904   3.241   4.271   1.518
 2959SOL    HW2 8905   3.238   4.410   1.434
 2960SOL     OW 8906   2.665   5.126   0.924
 2960SOL    HW1 8907   2.755   5.140   0.882
 2960SOL    HW2 8908   2.594   5.128   0.853
 2961SOL     OW 8909   2.784   4.227   0.899
 2961SOL    HW1 8910   2.759   4.218   0.803
 2961SOL    HW2 8911   2.832   4.145   0.930
 2962SOL     OW 8912   2.401   3.788   0.512
 2962SOL    HW1 8913   2.320   3.789   0.570
 2962SOL    HW2 8914   2.404   3.871   0.457
 2963SOL     OW 8915   3.296   4.912   0.041
 2963SOL    HW1 8916   3.328   4.836   0.098
 2963SOL    HW2 8917   3.204   4.939   0.071
 2964SOL     OW 8918   2.159   3.759   0.171
 2964SOL    HW1 8919   2.208   3.843   0.150
 2964SOL    HW2 8920   2.221   3.694   0.216
 2965SOL     OW 8921   2.797   3.960   0.480
 2965SOL    HW1 8922   2.749   4.001   0.402
 2965SOL    HW2 8923   2.896   3.958   0.461
 2966SOL     OW 8924   2.938   4.407   1.464
 2966SOL    HW1 8925   2.858   4.346   1.467
 2966SOL    HW2 8926   3.019   4.354   1.440
 2967SOL     OW 8927   3.089   5.294   0.793
 2967SOL    HW1 8928   3.110   5.368   0.728
 2967SOL    HW2 8929   3.157   5.294   0.866
 2968SOL     OW 8930   2.321   4.876   0.741
 2968SOL    HW1 8931   2.250   4.849   0.806
 2968SOL    HW2 8932   2.295   4.848   0.648
 2969SOL     OW 8933   2.894   4.273   0.016
 2969SOL    HW1 8934   2.853   4.355  -0.023
 2969SOL    HW2 8935   2.958   4.299   0.089
 2970SOL     OW 8936   1.940   4.280   1.386
 2970SOL    HW1 8937   2.032   4.279   1.345
 2970SOL    HW2 8938   1.934   4.354   1.453
 2971SOL     OW 8939   2.423   3.946   1.147
 2971SOL    HW1 8940   2.461   3.862   1.184
 2971SOL    HW2 8941   2.335   3.965   1.191
 2972SOL     OW 8942   2.728   4.178   0.642
 2972SOL    HW1 8943   2.696   4.250   0.580
 2972SOL    HW2 8944   2.752   4.097   0.589
 2973SOL     OW 8945   2.879   3.763   0.753
 2973SOL    HW1 8946   2.807   3.768   0.684
 2973SOL    HW2 8947   2.855   3.694   0.822
 2974SOL     OW 8948   3.291   4.897   0.867
 2974SOL    HW1 8949   3.236   4.813   0.860
 2974SOL    HW2 8950   3.317   4.926   0.775
 2975SOL     OW 8951   3.328   4.314   0.992
 2975SOL    HW1 8952   3.298   4.219   0.999
 2975SOL    HW2 8953   3.401   4.330   1.058
 2976SOL     OW 8954   3.719   4.557   0.377
 2976SOL    HW1 8955   3.761   4.493   0.441
 2976SOL    HW2 8956   3.681   4.506   0.299
 2977SOL     OW 8957   2.350   5.109   0.174
 2977SOL    HW1 8958   2.263   5.094   0.221
 2977SOL    HW2 8959   2.333   5.135   0.079
 2978SOL     OW 8960   3.526   5.004   0.657
 2978SOL    HW1 8961   3.625   5.012   0.671
 2978SOL    HW2 8962   3.481   5.088   0.688
 2979SOL     OW 8963   3.252   4.299   0.078
 2979SOL    HW1 8964   3.198   4.278   0.159
 2979SOL    HW2 8965   3.343   4.258   0.087
 2980SOL     OW 8966   2.389   3.980   0.328
 2980SOL    HW1 8967   2.416   3.921   0.253
 2980SOL    HW2 8968   2.389   4.075   0.297
 2981SOL     OW 8969   3.616   4.947   1.588
 2981SOL    HW1 8970   3.707   4.908   1.575
 2981SOL    HW2 8971   3.624   5.043   1.612
 2982SOL     OW 8972   2.926   5.071   1.340
 2982SOL    HW1 8973   2.846   5.048   1.395
 2982SOL    HW2 8974   3.009   5.045   1.389
 2983SOL     OW 8975   2.973   4.919   1.100
 2983SOL    HW1 8976   2.933   4.963   1.181
 2983SOL    HW2 8977   2.932   4.956   1.017
 2984SOL     OW 8978   3.500   4.823   1.079
 2984SOL    HW1 8979   3.505   4.904   1.138
 2984SOL    HW2 8980   3.414   4.825   1.028
 2985SOL     OW 8981   2.777   3.813   1.402
 2985SOL    HW1 8982   2.802   3.793   1.307
 2985SOL    HW2 8983   2.849   3.869   1.444
 2986SOL     OW 8984   2.842   4.840   1.719
 2986SOL    HW1 8985   2.743   4.846   1.729
 2986SOL    HW2 8986   2.865   4.760   1.663
 2987SOL     OW 8987   2.567   4.774   0.368
 2987SOL    HW1 8988   2.553   4.781   0.467
 2987SOL    HW2 8989   2.651   4.723   0.350
 2988SOL     OW 8990   2.272   4.537   1.251
 2988SOL    HW1 8991   2.358   4.549   1.301
 2988SOL    HW2 8992   2.230   4.450   1.278
 2989SOL     OW 8993   3.136   4.110   1.262
 2989SOL    HW1 8994   3.157   4.184   1.326
 2989SOL    HW2 8995   3.047   4.127   1.219
 2990SOL     OW 8996   2.229   4.824   0.501
 2990SOL    HW1 8997   2.222   4.907   0.445
 2990SOL    HW2 8998   2.233   4.744   0.441
 2991SOL     OW 8999   2.428   4.261   0.865
 2991SOL    HW1 9000   2.440   4.327   0.791
 2991SOL    HW2 9001   2.474   4.295   0.948
 2992SOL     OW 9002   3.114   5.072   0.388
 2992SOL    HW1 9003   3.164   5.149   0.428
 2992SOL    HW2 9004   3.019   5.074   0.420
 2993SOL     OW 9005   3.134   5.169   1.142
 2993SOL    HW1 9006   3.181   5.182   1.229
 2993SOL    HW2 9007   3.068   5.095   1.151
 2994SOL     OW 9008   3.444   4.363   0.472
 2994SOL    HW1 9009   3.413   4.424   0.545
 2994SOL    HW2 9010   3.494   4.415   0.403
 2995SOL     OW 9011   2.216   5.234   1.329
 2995SOL    HW1 9012   2.195   5.190   1.242
 2995SOL    HW2 9013   2.313   5.260   1.332
 2996SOL     OW 9014   2.264   4.475   1.598
 2996SOL    HW1 9015   2.332   4.530   1.551
 2996SOL    HW2 9016   2.304   4.387   1.625
 2997SOL     OW 9017   3.449   4.503   1.670
 2997SOL    HW1 9018   3.357   4.541   1.665
 2997SOL    HW2 9019   3.509   4.550   1.605
 2998SOL     OW 9020   2.875   3.829   1.770
 2998SOL    HW1 9021   2.881   3.914   1.718
 2998SOL    HW2 9022   2.907   3.753   1.713
 2999SOL     OW 9023   2.366   3.774   1.740
 2999SOL    HW1 9024   2.324   3.717   1.670
 2999SOL    HW2 9025   2.300   3.843   1.772
 3000SOL     OW 9026   2.435   4.594   1.029
 3000SOL    HW1 9027   2.479   4.683   1.020
 3000SOL    HW2 9028   2.372   4.594   1.106
 3001SOL     OW 9029   3.222   4.586   1.045
 3001SOL    HW1 9030   3.147   4.586   0.979
 3001SOL    HW2 9031   3.259   4.494   1.054
 3002SOL     OW 9032   3.071   4.249   0.275
 3002SOL    HW1 9033   3.084   4.165   0.329
 3002SOL    HW2 9034   3.042   4.323   0.335
 3003SOL     OW 9035   2.169   3.937   1.231
 3003SOL    HW1 9036   2.146   3.974   1.321
 3003SOL    HW2 9037   2.139   3.842   1.225
 3004SOL     OW 9038   1.899   5.034   1.282
 3004SOL    HW1 9039   1.952   4.985   1.350
 3004SOL    HW2 9040   1.921   5.132   1.287
 3005SOL     OW 9041   2.594   4.358   1.064
 3005SOL    HW1 9042   2.653   4.332   0.988
 3005SOL    HW2 9043   2.566   4.454   1.053
 3006SOL     OW 9044   3.590   4.659   1.854
 3006SOL    HW1 9045   3.544   4.652   1.765
 3006SOL    HW2 9046   3.528   4.703   1.920
 3007SOL     OW 9047   2.169   3.787   0.618
 3007SOL    HW1 9048   2.158   3.881   0.651
 3007SOL    HW2 9049   2.164   3.724   0.695
 3008SOL     OW 9050   3.484   4.091   0.374
 3008SOL    HW1 9051   3.486   4.015   0.438
 3008SOL    HW2 9052   3.436   4.168   0.414
 3009SOL     OW 9053   2.885   4.490   0.966
 3009SOL    HW1 9054   2.900   4.511   1.062
 3009SOL    HW2 9055   2.855   4.395   0.957
 3010SOL     OW 9056   3.721   5.242   1.605
 3010SOL    HW1 9057   3.735   5.269   1.510
 3010SOL    HW2 9058   3.804   5.264   1.658
 3011SOL     OW 9059   2.212   4.622   1.804
 3011SOL    HW1 9060   2.288   4.666   1.852
 3011SOL    HW2 9061   2.247   4.575   1.722
 3012SOL     OW 9062   3.402   3.998   0.125
 3012SOL    HW1 9063   3.341   3.923   0.148
 3012SOL    HW2 9064   3.424   4.050   0.208
 3013SOL     OW 9065   3.165   4.562   0.042
 3013SOL    HW1 9066   3.199   4.469   0.057
 3013SOL    HW2 9067   3.183   4.589  -0.053
 3014SOL     OW 9068   2.930   5.057   0.849
 3014SOL    HW1 9069   2.937   4.973   0.794
 3014SOL    HW2 9070   2.992   5.126   0.813
 3015SOL     OW 9071   2.181   4.534   0.949
 3015SOL    HW1 9072   2.274   4.570   0.954
 3015SOL    HW2 9073   2.175   4.449   1.001
 3016SOL     OW 9074   2.201   4.233   1.006
 3016SOL    HW1 9075   2.149   4.150   0.989
 3016SOL    HW2 9076   2.278   4.238   0.942
 3017SOL     OW 9077   3.000   4.104   1.678
 3017SOL    HW1 9078   2.955   4.167   1.742
 3017SOL    HW2 9079   3.093   4.135   1.661
 3018SOL     OW 9080   3.022   3.931   1.477
 3018SOL    HW1 9081   3.022   3.995   1.554
 3018SOL    HW2 9082   3.050   3.979   1.394
 3019SOL     OW 9083   1.870   5.050   0.200
 3019SOL    HW1 9084   1.777   5.071   0.169
 3019SOL    HW2 9085   1.880   4.951   0.213
 3020SOL     OW 9086   2.864   4.520   1.238
 3020SOL    HW1 9087   2.905   4.488   1.324
 3020SOL    HW2 9088   2.768   4.493   1.235
 3021SOL     OW 9089   1.902   4.268   1.114
 3021SOL    HW1 9090   1.987   4.235   1.073
 3021SOL    HW2 9091   1.915   4.283   1.212
 3022SOL     OW 9092   2.051   4.244   1.722
 3022SOL    HW1 9093   2.110   4.204   1.652
 3022SOL    HW2 9094   1.993   4.315   1.681
 3023SOL     OW 9095   3.231   4.674   1.660
 3023SOL    HW1 9096   3.270   4.763   1.680
 3023SOL    HW2 9097   3.241   4.654   1.563
 3024SOL     OW 9098   2.677   4.296   0.325
 3024SOL    HW1 9099   2.684   4.207   0.279
 3024SOL    HW2 9100   2.583   4.330   0.317
 3025SOL     OW 9101   3.519   4.328   1.206
 3025SOL    HW1 9102   3.481   4.259   1.268
 3025SOL    HW2 9103   3.601   4.292   1.162
 3026SOL     OW 9104   2.114   5.288   1.744
 3026SOL    HW1 9105   2.084   5.345   1.820
 3026SOL    HW2 9106   2.107   5.191   1.770
 3027SOL     OW 9107   2.533   4.188   1.269
 3027SOL    HW1 9108   2.499   4.099   1.239
 3027SOL    HW2 9109   2.559   4.242   1.189
 3028SOL     OW 9110   2.335   4.224   0.191
 3028SOL    HW1 9111   2.396   4.304   0.195
 3028SOL    HW2 9112   2.240   4.255   0.198
 3029SOL     OW 9113   2.021   4.861   1.466
 3029SOL    HW1 9114   2.043   4.800   1.542
 3029SOL    HW2 9115   2.031   4.812   1.380
 3030SOL     OW 9116   3.209   4.783   1.234
 3030SOL    HW1 9117   3.233   4.720   1.160
 3030SOL    HW2 9118   3.119   4.823   1.216
 3031SOL     OW 9119   3.164   4.579   0.309
 3031SOL    HW1 9120   3.078   4.548   0.351
 3031SOL    HW2 9121   3.160   4.565   0.210
 3032SOL     OW 9122   1.945   4.982   1.022
 3032SOL    HW1 9123   1.940   4.981   1.122
 3032SOL    HW2 9124   1.862   4.941   0.984
 3033SOL     OW 9125   2.765   3.810   0.133
 3033SOL    HW1 9126   2.816   3.811   0.047
 3033SOL    HW2 9127   2.821   3.768   0.204
 3034SOL     OW 9128   3.588   3.859   0.523
 3034SOL    HW1 9129   3.661   3.842   0.456
 3034SOL    HW2 9130   3.557   3.772   0.561
 3035SOL     OW 9131   3.142   4.651   0.672
 3035SOL    HW1 9132   3.202   4.570   0.674
 3035SOL    HW2 9133   3.182   4.720   0.612
 3036SOL     OW 9134   2.692   4.997   1.422
 3036SOL    HW1 9135   2.687   5.030   1.517
 3036SOL    HW2 9136   2.606   5.016   1.376
 3037SOL     OW 9137   3.703   3.899   0.963
 3037SOL    HW1 9138   3.742   3.814   0.927
 3037SOL    HW2 9139   3.605   3.901   0.944
 3038SOL     OW 9140   2.125   4.050   0.720
 3038SOL    HW1 9141   2.046   4.101   0.686
 3038SOL    HW2 9142   2.116   4.035   0.818
 3039SOL     OW 9143   3.056   5.336   0.031
 3039SOL    HW1 9144   3.062   5.243   0.068
 3039SOL    HW2 9145   2.997   5.336  -0.049
 3040SOL     OW 9146   2.684   4.726   1.372
 3040SOL    HW1 9147   2.724   4.725   1.280
 3040SOL    HW2 9148   2.694   4.818   1.412
 3041SOL     OW 9149   2.778   4.634   0.291
 3041SOL    HW1 9150   2.841   4.672   0.223
 3041SOL    HW2 9151   2.818   4.551   0.330
 3042SOL     OW 9152   2.234   5.012   1.490
 3042SOL    HW1 9153   2.221   5.105   1.456
 3042SOL    HW2 9154   2.150   4.960   1.477
 3043SOL     OW 9155   3.476   5.016   1.289
 3043SOL    HW1 9156   3.536   5.019   1.369
 3043SOL    HW2 9157   3.401   5.080   1.302
 3044SOL     OW 9158   2.901   4.822   0.696
 3044SOL    HW1 9159   2.831   4.775   0.750
 3044SOL    HW2 9160   2.960   4.754   0.653
 3045SOL     OW 9161   2.876   3.960   0.971
 3045SOL    HW1 9162   2.868   3.924   0.878
 3045SOL    HW2 9163   2.874   3.884   1.036
 3046SOL     OW 9164   3.571   4.109   1.381
 3046SOL    HW1 9165   3.644   4.178   1.385
 3046SOL    HW2 9166   3.599   4.034   1.322
 3047SOL     OW 9167   2.117   5.072   0.290
 3047SOL    HW1 9168   2.021   5.073   0.263
 3047SOL    HW2 9169   2.129   5.125   0.374
 3048SOL     OW 9170   1.967   4.737   1.726
 3048SOL    HW1 9171   1.890   4.704   1.780
 3048SOL    HW2 9172   2.052   4.707   1.768
 3049SOL     OW 9173   2.534   3.927   1.489
 3049SOL    HW1 9174   2.624   3.911   1.449
 3049SOL    HW2 9175   2.542   3.932   1.588
 3050SOL     OW 9176   3.302   4.580   1.398
 3050SOL    HW1 9177   3.245   4.632   1.335
 3050SOL    HW2 9178   3.398   4.592   1.374
 3051SOL     OW 9179   1.934   3.890   0.318
 3051SOL    HW1 9180   1.917   3.973   0.264
 3051SOL    HW2 9181   2.024   3.853   0.296
 3052SOL     OW 9182   3.045   5.059   0.119
 3052SOL    HW1 9183   2.946   5.048   0.121
 3052SOL    HW2 9184   3.079   5.074   0.212
 3053SOL     OW 9185   2.475   4.566   1.431
 3053SOL    HW1 9186   2.531   4.647   1.414
 3053SOL    HW2 9187   2.534   4.486   1.434
 3054SOL     OW 9188   2.578   4.289   1.708
 3054SOL    HW1 9189   2.597   4.354   1.782
 3054SOL    HW2 9190   2.638   4.209   1.717
 3055SOL     OW 9191   3.312   4.944   1.633
 3055SOL    HW1 9192   3.303   4.934   1.732
 3055SOL    HW2 9193   3.408   4.937   1.607
 3056SOL     OW 9194   3.536   4.607   1.254
 3056SOL    HW1 9195   3.509   4.518   1.217
 3056SOL    HW2 9196   3.537   4.675   1.181
 3057SOL     OW 9197   3.087   4.049   0.449
 3057SOL    HW1 9198   3.152   3.975   0.438
 3057SOL    HW2 9199   3.107   4.099   0.533
 3058SOL     OW 9200   2.456   4.469   0.652
 3058SOL    HW1 9201   2.506   4.554   0.633
 3058SOL    HW2 9202   2.368   4.471   0.604
 3059SOL     OW 9203   3.639   4.066   1.642
 3059SOL    HW1 9204   3.622   4.097   1.548
 3059SOL    HW2 9205   3.555   4.029   1.680
 3060SOL     OW 9206   3.592   4.658   1.517
 3060SOL    HW1 9207   3.630   4.749   1.532
 3060SOL    HW2 9208   3.584   4.641   1.418
 3061SOL     OW 9209   2.721   5.098   0.016
 3061SOL    HW1 9210   2.675   5.113   0.104
 3061SOL    HW2 9211   2.765   5.183  -0.014
 3062SOL     OW 9212   2.721   4.680   0.861
 3062SOL    HW1 9213   2.775   4.611   0.909
 3062SOL    HW2 9214   2.689   4.749   0.927
 3063SOL     OW 9215   2.945   4.708   0.087
 3063SOL    HW1 9216   2.922   4.761   0.005
 3063SOL    HW2 9217   3.026   4.652   0.068
 3064SOL     OW 9218   2.083   5.038   1.844
 3064SOL    HW1 9219   2.018   4.965   1.823
 3064SOL    HW2 9220   2.087   5.052   1.942
 3065SOL     OW 9221   1.941   4.964   0.653
 3065SOL    HW1 9222   1.940   4.917   0.741
 3065SOL    HW2 9223   2.023   4.936   0.602
 3066SOL     OW 9224   2.534   5.115   1.624
 3066SOL    HW1 9225   2.456   5.065   1.662
 3066SOL    HW2 9226   2.531   5.210   1.655
 3067SOL     OW 9227   3.686   3.916   1.227
 3067SOL    HW1 9228   3.682   3.826   1.271
 3067SOL    HW2 9229   3.689   3.905   1.128
 3068SOL     OW 9230   2.290   4.148   0.520
 3068SOL    HW1 9231   2.320   4.076   0.458
 3068SOL    HW2 9232   2.251   4.108   0.603
 3069SOL     OW 9233   3.567   5.211   1.104
 3069SOL    HW1 9234   3.474   5.186   1.077
 3069SOL    HW2 9235   3.593   5.161   1.186
 3070SOL     OW 9236   2.179   4.271   1.280
 3070SOL    HW1 9237   2.217   4.212   1.352
 3070SOL    HW2 9238   2.219   4.245   1.192
 3071SOL     OW 9239   3.286   3.938   1.112
 3071SOL    HW1 9240   3.338   3.873   1.167
 3071SOL    HW2 9241   3.237   4.001   1.173
 3072SOL     OW 9242   2.863   3.758   1.154
 3072SOL    HW1 9243   2.800   3.686   1.123
 3072SOL    HW2 9244   2.956   3.722   1.154
 3073SOL     OW 9245   2.632   5.054   0.301
 3073SOL    HW1 9246   2.586   4.967   0.318
 3073SOL    HW2 9247   2.723   5.051   0.342
 3074SOL     OW 9248   2.480   5.291   1.284
 3074SOL    HW1 9249   2.475   5.373   1.341
 3074SOL    HW2 9250   2.569   5.288   1.239
 3075SOL     OW 9251   3.214   3.776   0.168
 3075SOL    HW1 9252   3.249   3.735   0.084
 3075SOL    HW2 9253   3.124   3.738   0.188
 3076SOL     OW 9254   3.162   4.177   0.691
 3076SOL    HW1 9255   3.103   4.257   0.695
 3076SOL    HW2 9256   3.177   4.142   0.784
 3077SOL     OW 9257   3.455   3.945   0.882
 3077SOL    HW1 9258   3.371   3.944   0.936
 3077SOL    HW2 9259   3.457   4.028   0.826
 3078SOL     OW 9260   1.901   4.801   0.300
 3078SOL    HW1 9261   2.000   4.790   0.291
 3078SOL    HW2 9262   1.861   4.715   0.332
 3079SOL     OW 9263   2.092   4.352   1.975
 3079SOL    HW1 9264   1.999   4.350   2.012
 3079SOL    HW2 9265   2.093   4.313   1.883
 3080SOL     OW 9266   2.087   3.999   2.858
 3080SOL    HW1 9267   2.122   3.982   2.950
 3080SOL    HW2 9268   1.999   3.954   2.846
 3081SOL     OW 9269   1.881   4.092   2.509
 3081SOL    HW1 9270   1.799   4.135   2.548
 3081SOL    HW2 9271   1.853   4.019   2.446
 3082SOL     OW 9272   2.431   4.999   3.027
 3082SOL    HW1 9273   2.338   4.992   2.990
 3082SOL    HW2 9274   2.442   5.088   3.071
 3083SOL     OW 9275   3.417   5.235   2.565
 3083SOL    HW1 9276   3.360   5.219   2.646
 3083SOL    HW2 9277   3.358   5.245   2.485
 3084SOL     OW 9278   2.997   4.427   2.579
 3084SOL    HW1 9279   3.054   4.505   2.554
 3084SOL    HW2 9280   2.937   4.453   2.655
 3085SOL     OW 9281   3.617   4.331   2.093
 3085SOL    HW1 9282   3.605   4.318   1.994
 3085SOL    HW2 9283   3.587   4.250   2.142
 3086SOL     OW 9284   2.630   4.868   2.885
 3086SOL    HW1 9285   2.552   4.885   2.945
 3086SOL    HW2 9286   2.664   4.955   2.849
 3087SOL     OW 9287   2.712   4.522   3.685
 3087SOL    HW1 9288   2.708   4.598   3.750
 3087SOL    HW2 9289   2.734   4.558   3.594
 3088SOL     OW 9290   2.547   4.736   2.527
 3088SOL    HW1 9291   2.616   4.720   2.597
 3088SOL    HW2 9292   2.474   4.793   2.565
 3089SOL     OW 9293   2.548   4.885   3.665
 3089SOL    HW1 9294   2.608   4.964   3.679
 3089SOL    HW2 9295   2.462   4.916   3.624
 3090SOL     OW 9296   2.197   5.159   2.923
 3090SOL    HW1 9297   2.119   5.128   2.870
 3090SOL    HW2 9298   2.255   5.217   2.866
 3091SOL     OW 9299   3.322   5.229   3.201
 3091SOL    HW1 9300   3.346   5.323   3.227
 3091SOL    HW2 9301   3.306   5.175   3.283
 3092SOL     OW 9302   2.300   4.116   3.361
 3092SOL    HW1 9303   2.382   4.060   3.370
 3092SOL    HW2 9304   2.219   4.058   3.365
 3093SOL     OW 9305   3.465   4.171   2.599
 3093SOL    HW1 9306   3.391   4.217   2.549
 3093SOL    HW2 9307   3.516   4.239   2.652
 3094SOL     OW 9308   2.093   5.437   2.345
 3094SOL    HW1 9309   2.127   5.514   2.399
 3094SOL    HW2 9310   2.137   5.437   2.255
 3095SOL     OW 9311   2.989   5.065   3.552
 3095SOL    HW1 9312   3.036   5.065   3.640
 3095SOL    HW2 9313   2.941   4.978   3.541
 3096SOL     OW 9314   2.092   5.158   2.400
 3096SOL    HW1 9315   2.066   5.254   2.400
 3096SOL    HW2 9316   2.021   5.104   2.445
 3097SOL     OW 9317   2.102   4.815   2.748
 3097SOL    HW1 9318   2.116   4.731   2.800
 3097SOL    HW2 9319   2.047   4.879   2.803
 3098SOL     OW 9320   2.468   4.688   1.985
 3098SOL    HW1 9321   2.475   4.772   1.931
 3098SOL    HW2 9322   2.514   4.701   2.073
 3099SOL     OW 9323   3.456   3.838   3.342
 3099SOL    HW1 9324   3.438   3.905   3.270
 3099SOL    HW2 9325   3.453   3.884   3.431
 3100SOL     OW 9326   1.984   4.367   2.425
 3100SOL    HW1 9327   1.939   4.279   2.442
 3100SOL    HW2 9328   1.983   4.421   2.509
 3101SOL     OW 9329   1.889   5.320   1.979
 3101SOL    HW1 9330   1.870   5.224   2.000
 3101SOL    HW2 9331   1.856   5.378   2.054
 3102SOL     OW 9332   3.551   4.646   2.474
 3102SOL    HW1 9333   3.646   4.617   2.482
 3102SOL    HW2 9334   3.543   4.711   2.399
 3103SOL     OW 9335   3.503   4.832   2.294
 3103SOL    HW1 9336   3.589   4.834   2.242
 3103SOL    HW2 9337   3.517   4.879   2.382
 3104SOL     OW 9338   1.975   4.461   3.459
 3104SOL    HW1 9339   2.063   4.448   3.504
 3104SOL    HW2 9340   1.962   4.558   3.437
 3105SOL     OW 9341   2.475   5.089   2.588
 3105SOL    HW1 9342   2.426   5.002   2.597
 3105SOL    HW2 9343   2.452   5.132   2.501
 3106SOL     OW 9344   3.155   4.952   3.285
 3106SOL    HW1 9345   3.192   4.879   3.227
 3106SOL    HW2 9346   3.207   4.957   3.370
 3107SOL     OW 9347   2.671   3.728   2.364
 3107SOL    HW1 9348   2.711   3.819   2.355
 3107SOL    HW2 9349   2.571   3.736   2.370
 3108SOL     OW 9350   2.059   4.700   3.126
 3108SOL    HW1 9351   2.148   4.655   3.112
 3108SOL    HW2 9352   1.986   4.635   3.107
 3109SOL     OW 9353   3.387   4.723   2.052
 3109SOL    HW1 9354   3.324   4.647   2.065
 3109SOL    HW2 9355   3.435   4.741   2.138
 3110SOL     OW 9356   2.179   3.975   3.663
 3110SOL    HW1 9357   2.250   4.046   3.669
 3110SOL    HW2 9358   2.091   4.014   3.691
 3111SOL     OW 9359   3.328   5.141   2.815
 3111SOL    HW1 9360   3.269   5.147   2.895
 3111SOL    HW2 9361   3.313   5.053   2.769
 3112SOL     OW 9362   2.460   4.453   2.132
 3112SOL    HW1 9363   2.484   4.522   2.064
 3112SOL    HW2 9364   2.382   4.486   2.186
 3113SOL     OW 9365   3.143   4.069   2.806
 3113SOL    HW1 9366   3.057   4.019   2.793
 3113SOL    HW2 9367   3.205   4.015   2.862
 3114SOL     OW 9368   2.669   4.329   3.327
 3114SOL    HW1 9369   2.622   4.326   3.416
 3114SOL    HW2 9370   2.618   4.274   3.261
 3115SOL     OW 9371   3.256   4.193   3.536
 3115SOL    HW1 9372   3.236   4.236   3.624
 3115SOL    HW2 9373   3.334   4.131   3.545
 3116SOL     OW 9374   2.835   4.614   3.434
 3116SOL    HW1 9375   2.881   4.530   3.405
 3116SOL    HW2 9376   2.779   4.648   3.359
 3117SOL     OW 9377   2.853   4.134   3.104
 3117SOL    HW1 9378   2.776   4.168   3.158
 3117SOL    HW2 9379   2.819   4.083   3.025
 3118SOL     OW 9380   2.903   4.425   2.291
 3118SOL    HW1 9381   2.929   4.421   2.387
 3118SOL    HW2 9382   2.818   4.374   2.277
 3119SOL     OW 9383   1.938   4.535   2.651
 3119SOL    HW1 9384   2.037   4.523   2.660
 3119SOL    HW2 9385   1.914   4.630   2.672
 3120SOL     OW 9386   2.727   4.072   2.057
 3120SOL    HW1 9387   2.786   4.135   2.008
 3120SOL    HW2 9388   2.746   3.978   2.028
 3121SOL     OW 9389   3.581   4.309   3.693
 3121SOL    HW1 9390   3.555   4.398   3.657
 3121SOL    HW2 9391   3.579   4.241   3.620
 3122SOL     OW 9392   3.224   4.868   2.407
 3122SOL    HW1 9393   3.307   4.839   2.359
 3122SOL    HW2 9394   3.175   4.935   2.351
 3123SOL     OW 9395   2.412   3.920   2.747
 3123SOL    HW1 9396   2.407   3.915   2.847
 3123SOL    HW2 9397   2.414   4.016   2.718
 3124SOL     OW 9398   2.870   5.180   2.339
 3124SOL    HW1 9399   2.824   5.252   2.287
 3124SOL    HW2 9400   2.866   5.200   2.437
 3125SOL     OW 9401   3.657   4.790   2.735
 3125SOL    HW1 9402   3.595   4.775   2.659
 3125SOL    HW2 9403   3.605   4.801   2.820
 3126SOL     OW 9404   3.089   5.274   3.368
 3126SOL    HW1 9405   3.095   5.197   3.432
 3126SOL    HW2 9406   3.037   5.248   3.288
 3127SOL     OW 9407   2.183   4.667   2.104
 3127SOL    HW1 9408   2.265   4.706   2.062
 3127SOL    HW2 9409   2.156   4.585   2.055
 3128SOL     OW 9410   3.320   4.459   2.590
 3128SOL    HW1 9411   3.315   4.394   2.665
 3128SOL    HW2 9412   3.400   4.518   2.603
 3129SOL     OW 9413   2.323   4.990   3.589
 3129SOL    HW1 9414   2.273   4.991   3.503
 3129SOL    HW2 9415   2.260   4.972   3.665
 3130SOL     OW 9416   2.973   5.500   2.099
 3130SOL    HW1 9417   2.913   5.438   2.149
 3130SOL    HW2 9418   3.004   5.456   2.014
 3131SOL     OW 9419   2.064   4.009   3.360
 3131SOL    HW1 9420   1.984   4.069   3.347
 3131SOL    HW2 9421   2.054   3.960   3.446
 3132SOL     OW 9422   3.494   5.101   1.943
 3132SOL    HW1 9423   3.462   5.195   1.933
 3132SOL    HW2 9424   3.418   5.038   1.931
 3133SOL     OW 9425   3.262   3.831   2.288
 3133SOL    HW1 9426   3.238   3.794   2.198
 3133SOL    HW2 9427   3.361   3.847   2.292
 3134SOL     OW 9428   2.244   4.424   2.342
 3134SOL    HW1 9429   2.289   4.334   2.339
 3134SOL    HW2 9430   2.150   4.413   2.375
 3135SOL     OW 9431   3.409   3.946   3.591
 3135SOL    HW1 9432   3.404   3.983   3.683
 3135SOL    HW2 9433   3.337   3.877   3.579
 3136SOL     OW 9434   2.476   3.846   1.979
 3136SOL    HW1 9435   2.574   3.824   1.986
 3136SOL    HW2 9436   2.445   3.829   1.886
 3137SOL     OW 9437   2.643   3.988   3.611
 3137SOL    HW1 9438   2.710   3.927   3.654
 3137SOL    HW2 9439   2.570   4.007   3.676
 3138SOL     OW 9440   3.213   4.314   3.295
 3138SOL    HW1 9441   3.241   4.271   3.380
 3138SOL    HW2 9442   3.238   4.410   3.296
 3139SOL     OW 9443   2.665   5.126   2.786
 3139SOL    HW1 9444   2.755   5.140   2.744
 3139SOL    HW2 9445   2.594   5.128   2.715
 3140SOL     OW 9446   2.784   4.227   2.761
 3140SOL    HW1 9447   2.759   4.218   2.665
 3140SOL    HW2 9448   2.832   4.145   2.792
 3141SOL     OW 9449   2.401   3.788   2.374
 3141SOL    HW1 9450   2.320   3.789   2.432
 3141SOL    HW2 9451   2.404   3.871   2.319
 3142SOL     OW 9452   3.296   4.912   1.903
 3142SOL    HW1 9453   3.328   4.836   1.960
 3142SOL    HW2 9454   3.204   4.939   1.933
 3143SOL     OW 9455   2.159   3.759   2.033
 3143SOL    HW1 9456   2.208   3.843   2.012
 3143SOL    HW2 9457   2.221   3.694   2.078
 3144SOL     OW 9458   2.797   3.960   2.342
 3144SOL    HW1 9459   2.749   4.001   2.264
 3144SOL    HW2 9460   2.896   3.958   2.323
 3145SOL     OW 9461   2.938   4.407   3.326
 3145SOL    HW1 9462   2.858   4.346   3.329
 3145SOL    HW2 9463   3.019   4.354   3.302
 3146SOL     OW 9464   3.089   5.294   2.655
 3146SOL    HW1 9465   3.110   5.368   2.590
 3146SOL    HW2 9466   3.157   5.294   2.728
 3147SOL     OW 9467   2.321   4.876   2.603
 3147SOL    HW1 9468   2.250   4.849   2.668
 3147SOL    HW2 9469   2.295   4.848   2.510
 3148SOL     OW 9470   2.894   4.273   1.878
 3148SOL    HW1 9471   2.853   4.355   1.839
 3148SOL    HW2 9472   2.958   4.299   1.951
 3149SOL     OW 9473   1.940   4.280   3.248
 3149SOL    HW1 9474   2.032   4.279   3.207
 3149SOL    HW2 9475   1.934   4.354   3.315
 3150SOL     OW 9476   2.423   3.946   3.009
 3150SOL    HW1 9477   2.461   3.862   3.046
 3150SOL    HW2 9478   2.335   3.965   3.053
 3151SOL     OW 9479   2.728   4.178   2.504
 3151SOL    HW1 9480   2.696   4.250   2.442
 3151SOL    HW2 9481   2.752   4.097   2.451
 3152SOL     OW 9482   2.879   3.763   2.615
 3152SOL    HW1 9483   2.807   3.768   2.546
 3152SOL    HW2 9484   2.855   3.694   2.684
 3153SOL     OW 9485   3.291   4.897   2.729
 3153SOL    HW1 9486   3.236   4.813   2.722
 3153SOL    HW2 9487   3.317   4.926   2.637
 3154SOL     OW 9488   3.328   4.314   2.854
 3154SOL    HW1 9489   3.298   4.219   2.861
 3154SOL    HW2 9490   3.401   4.330   2.920
 3155SOL     OW 9491   3.719   4.557   2.239
 3155SOL    HW1 9492   3.761   4.493   2.303
 3155SOL    HW2 9493   3.681   4.506   2.161
 3156SOL     OW 9494   2.350   5.109   2.036
 3156SOL    HW1 9495   2.263   5.094   2.083
 3156SOL    HW2 9496   2.333   5.135   1.941
 3157SOL     OW 9497   3.526   5.004   2.519
 3157SOL    HW1 9498   3.625   5.012   2.533
 3157SOL    HW2 9499   3.481   5.088   2.550
 3158SOL     OW 9500   3.252   4.299   1.940
 3158SOL    HW1 9501   3.198   4.278   2.021
 3158SOL    HW2 9502   3.343   4.258   1.949
 3159SOL     OW 9503   2.389   3.980   2.190
 3159SOL    HW1 9504   2.416   3.921   2.115
 3159SOL    HW2 9505   2.389   4.075   2.159
 3160SOL     OW 9506   3.616   4.947   3.450
 3160SOL    HW1 9507   3.707   4.908   3.437
 3160SOL    HW2 9508   3.624   5.043   3.474
 3161SOL     OW 9509   2.926   5.071   3.202
 3161SOL    HW1 9510   2.846   5.048   3.257
 3161SOL    HW2 9511   3.009   5.045   3.251
 3162SOL     OW 9512   2.973   4.919   2.962
 3162SOL    HW1 9513   2.933   4.963   3.043
 3162SOL    HW2 9514   2.932   4.956   2.879
 3163SOL     OW 9515   3.500   4.823   2.941
 3163SOL    HW1 9516   3.505   4.904   3.000
 3163SOL    HW2 9517   3.414   4.825   2.890
 3164SOL     OW 9518   2.777   3.813   3.264
 3164SOL    HW1 9519   2.802   3.793   3.169
 3164SOL    HW2 9520   2.849   3.869   3.306
 3165SOL     OW 9521   2.842   4.840   3.581
 3165SOL    HW1 9522   2.743   4.846   3.591
 3165SOL    HW2 9523   2.865   4.760   3.525
 3166SOL     OW 9524   2.567   4.774   2.230
 3166SOL    HW1 9525   2.553   4.781   2.329
 3166SOL    HW2 9526   2.651   4.723   2.212
 3167SOL     OW 9527   2.272   4.537   3.113
 3167SOL    HW1 9528   2.358   4.549   3.163
 3167SOL    HW2 9529   2.230   4.450   3.140
 3168SOL     OW 9530   3.136   4.110   3.124
 3168SOL    HW1 9531   3.157   4.184   3.188
 3168SOL    HW2 9532   3.047   4.127   3.081
 3169SOL     OW 9533   2.229   4.824   2.363
 3169SOL    HW1 9534   2.222   4.907   2.307
 3169SOL    HW2 9535   2.233   4.744   2.303
 3170SOL     OW 9536   2.428   4.261   2.727
 3170SOL    HW1 9537   2.440   4.327   2.653
 3170SOL    HW2 9538   2.474   4.295   2.810
 3171SOL     OW 9539   3.114   5.072   2.250
 3171SOL    HW1 9540   3.164   5.149   2.290
 3171SOL    HW2 9541   3.019   5.074   2.282
 3172SOL     OW 9542   3.134   5.169   3.004
 3172SOL    HW1 9543   3.181   5.182   3.091
 3172SOL    HW2 9544   3.068   5.095   3.013
 3173SOL     OW 9545   3.444   4.363   2.334
 3173SOL    HW1 9546   3.413   4.424   2.407
 3173SOL    HW2 9547   3.494   4.415   2.265
 3174SOL     OW 9548   2.216   5.234   3.191
 3174SOL    HW1 9549   2.195   5.190   3.104
 3174SOL    HW2 9550   2.313   5.260   3.194
 3175SOL     OW 9551   2.264   4.475   3.460
 3175SOL    HW1 9552   2.332   4.530   3.413
 3175SOL    HW2 9553   2.304   4.387   3.487
 3176SOL     OW 9554   3.449   4.503   3.532
 3176SOL    HW1 9555   3.357   4.541   3.527
 3176SOL    HW2 9556   3.509   4.550   3.467
 3177SOL     OW 9557   2.875   3.829   3.632
 3177SOL    HW1 9558   2.881   3.914   3.580
 3177SOL    HW2 9559   2.907   3.753   3.575
 3178SOL     OW 9560   2.366   3.774   3.602
 3178SOL    HW1 9561   2.324   3.717   3.532
 3178SOL    HW2 9562   2.300   3.843   3.634
 3179SOL     OW 9563   2.435   4.594   2.891
 3179SOL    HW1 9564   2.479   4.683   2.882
 3179SOL    HW2 9565   2.372   4.594   2.968
 3180SOL     OW 9566   3.222   4.586   2.907
 3180SOL    HW1 9567   3.147   4.586   2.841
 3180SOL    HW2 9568   3.259   4.494   2.916
 3181SOL     OW 9569   3.071   4.249   2.137
 3181SOL    HW1 9570   3.084   4.165   2.191
 3181SOL    HW2 9571   3.042   4.323   2.197
 3182SOL     OW 9572   2.169   3.937   3.093
 3182SOL    HW1 9573   2.146   3.974   3.183
 3182SOL    HW2 9574   2.139   3.842   3.087
 3183SOL     OW 9575   1.899   5.034   3.144
 3183SOL    HW1 9576   1.952   4.985   3.212
 3183SOL    HW2 9577   1.921   5.132   3.149
 3184SOL     OW 9578   2.594   4.358   2.926
 3184SOL    HW1 9579   2.653   4.332   2.850
 3184SOL    HW2 9580   2.566   4.454   2.915
 3185SOL     OW 9581   3.590   4.659   3.716
 3185SOL    HW1 9582   3.544   4.652   3.627
 3185SOL    HW2 9583   3.528   4.703   3.782
 3186SOL     OW 9584   2.169   3.787   2.480
 3186SOL    HW1 9585   2.158   3.881   2.513
 3186SOL    HW2 9586   2.164   3.724   2.557
 3187SOL     OW 9587   3.484   4.091   2.236
 3187SOL    HW1 9588   3.486   4.015   2.300
 3187SOL    HW2 9589   3.436   4.168   2.276
 3188SOL     OW 9590   2.885   4.490   2.828
 3188SOL    HW1 9591   2.900   4.511   2.924
 3188SOL    HW2 9592   2.855   4.395   2.819
 3189SOL     OW 9593   3.721   5.242   3.467
 3189SOL    HW1 9594   3.735   5.269   3.372
 3189SOL    HW2 9595   3.804   5.264   3.520
 3190SOL     OW 9596   2.212   4.622   3.666
 3190SOL    HW1 9597   2.288   4.666   3.714
 3190SOL    HW2 9598   2.247   4.575   3.584
 3191SOL     OW 9599   3.402   3.998   1.987
 3191SOL    HW1 9600   3.341   3.923   2.010
 3191SOL    HW2 9601   3.424   4.050   2.070
 3192SOL     OW 9602   3.165   4.562   1.904
 3192SOL    HW1 9603   3.199   4.469   1.919
 3192SOL    HW2 9604   3.183   4.589   1.809
 3193SOL     OW 9605   2.930   5.057   2.711
 3193SOL    HW1 9606   2.937   4.973   2.656
 3193SOL    HW2 9607   2.992   5.126   2.675
 3194SOL     OW 9608   2.181   4.534   2.811
 3194SOL    HW1 9609   2.274   4.570   2.816
 3194SOL    HW2 9610   2.175   4.449   2.863
 3195SOL     OW 9611   2.201   4.233   2.868
 3195SOL    HW1 9612   2.149   4.150   2.851
 3195SOL    HW2 9613   2.278   4.238   2.804
 3196SOL     OW 9614   3.000   4.104   3.540
 3196SOL    HW1 9615   2.955   4.167   3.604
 3196SOL    HW2 9616   3.093   4.135   3.523
 3197SOL     OW 9617   3.022   3.931   3.339
 3197SOL    HW1 9618   3.022   3.995   3.416
 3197SOL    HW2 9619   3.050   3.979   3.256
 3198SOL     OW 9620   1.870   5.050   2.062
 3198SOL    HW1 9621   1.777   5.071   2.031
 3198SOL    HW2 9622   1.880   4.951   2.075
 3199SOL     OW 9623   2.864   4.520   3.100
 3199SOL    HW1 9624   2.905   4.488   3.186
 3199SOL    HW2 9625   2.768   4.493   3.097
 3200SOL     OW 9626   1.902   4.268   2.976
 3200SOL    HW1 9627   1.987   4.235   2.935
 3200SOL    HW2 9628   1.915   4.283   3.074
 3201SOL     OW 9629   2.051   4.244   3.584
 3201SOL    HW1 9630   2.110   4.204   3.514
 3201SOL    HW2 9631   1.993   4.315   3.543
 3202SOL     OW 9632   3.231   4.674   3.522
 3202SOL    HW1 9633   3.270   4.763   3.542
 3202SOL    HW2 9634   3.241   4.654   3.425
 3203SOL     OW 9635   2.677   4.296   2.187
 3203SOL    HW1 9636   2.684   4.207   2.141
 3203SOL    HW2 9637   2.583   4.330   2.179
 3204SOL     OW 9638   3.519   4.328   3.068
 3204SOL    HW1 9639   3.481   4.259   3.130
 3204SOL    HW2 9640   3.601   4.292   3.024
 3205SOL     OW 9641   2.114   5.288   3.606
 3205SOL    HW1 9642   2.084   5.345   3.682
 3205SOL    HW2 9643   2.107   5.191   3.632
 3206SOL     OW 9644   2.533   4.188   3.131
 3206SOL    HW1 9645   2.499   4.099   3.101
 3206SOL    HW2 9646   2.559   4.242   3.051
 3207SOL     OW 9647   2.335   4.224   2.053
 3207SOL    HW1 9648   2.396   4.304   2.057
 3207SOL    HW2 9649   2.240   4.255   2.060
 3208SOL     OW 9650   2.021   4.861   3.328
 3208SOL    HW1 9651   2.043   4.800   3.404
 3208SOL    HW2 9652   2.031   4.812   3.242
 3209SOL     OW 9653   3.209   4.783   3.096
 3209SOL    HW1 9654   3.233   4.720   3.022
 3209SOL    HW2 9655   3.119   4.823   3.078
 3210SOL     OW 9656   3.164   4.579   2.171
 3210SOL    HW1 9657   3.078   4.548   2.213
 3210SOL    HW2 9658   3.160   4.565   2.072
 3211SOL     OW 9659   1.945   4.982   2.884
 3211SOL    HW1 9660   1.940   4.981   2.984
 3211SOL    HW2 9661   1.862   4.941   2.846
 3212SOL     OW 9662   3.588   3.859   2.385
 3212SOL    HW1 9663   3.661   3.842   2.318
 3212SOL    HW2 9664   3.557   3.772   2.423
 3213SOL     OW 9665   3.142   4.651   2.534
 3213SOL    HW1 9666   3.202   4.570   2.536
 3213SOL    HW2 9667   3.182   4.720   2.474
 3214SOL     OW 9668   2.692   4.997   3.284
 3214SOL    HW1 9669   2.687   5.030   3.379
 3214SOL    HW2 9670   2.606   5.016   3.238
 3215SOL     OW 9671   3.703   3.899   2.825
 3215SOL    HW1 9672   3.742   3.814   2.789
 3215SOL    HW2 9673   3.605   3.901   2.806
 3216SOL     OW 9674   2.125   4.050   2.582
 3216SOL    HW1 9675   2.046   4.101   2.548
 3216SOL    HW2 9676   2.116   4.035   2.680
 3217SOL     OW 9677   2.684   4.726   3.234
 3217SOL    HW1 9678   2.724   4.725   3.142
 3217SOL    HW2 9679   2.694   4.818   3.274
 3218SOL     OW 9680   2.778   4.634   2.153
 3218SOL    HW1 9681   2.841   4.672   2.085
 3218SOL    HW2 9682   2.818   4.551   2.192
 3219SOL     OW 9683   2.234   5.012   3.352
 3219SOL    HW1 9684   2.221   5.105   3.318
 3219SOL    HW2 9685   2.150   4.960   3.339
 3220SOL     OW 9686   3.476   5.016   3.151
 3220SOL    HW1 9687   3.536   5.019   3.231
 3220SOL    HW2 9688   3.401   5.080   3.164
 3221SOL     OW 9689   2.901   4.822   2.558
 3221SOL    HW1 9690   2.831   4.775   2.612
 3221SOL    HW2 9691   2.960   4.754   2.515
 3222SOL     OW 9692   2.876   3.960   2.833
 3222SOL    HW1 9693   2.868   3.924   2.740
 3222SOL    HW2 9694   2.874   3.884   2.898
 3223SOL     OW 9695   3.571   4.109   3.243
 3223SOL    HW1 9696   3.644   4.178   3.247
 3223SOL    HW2 9697   3.599   4.034   3.184
 3224SOL     OW 9698   2.117   5.072   2.152
 3224SOL    HW1 9699   2.021   5.073   2.125
 3224SOL    HW2 9700   2.129   5.125   2.236
 3225SOL     OW 9701   1.967   4.737   3.588
 3225SOL    HW1 9702   1.890   4.704   3.642
 3225SOL    HW2 9703   2.052   4.707   3.630
 3226SOL     OW 9704   2.534   3.927   3.351
 3226SOL    HW1 9705   2.624   3.911   3.311
 3226SOL    HW2 9706   2.542   3.932   3.450
 3227SOL     OW 9707   1.937   4.069   1.895
 3227SOL    HW1 9708   1.845   4.041   1.866
 3227SOL    HW2 9709   1.968   4.146   1.839
 3228SOL     OW 9710   3.302   4.580   3.260
 3228SOL    HW1 9711   3.245   4.632   3.197
 3228SOL    HW2 9712   3.398   4.592   3.236
 3229SOL     OW 9713   1.934   3.890   2.180
 3229SOL    HW1 9714   1.917   3.973   2.126
 3229SOL    HW2 9715   2.024   3.853   2.158
 3230SOL     OW 9716   3.045   5.059   1.981
 3230SOL    HW1 9717   2.946   5.048   1.983
 3230SOL    HW2 9718   3.079   5.074   2.074
 3231SOL     OW 9719   2.475   4.566   3.293
 3231SOL    HW1 9720   2.531   4.647   3.276
 3231SOL    HW2 9721   2.534   4.486   3.296
 3232SOL     OW 9722   2.578   4.289   3.570
 3232SOL    HW1 9723   2.597   4.354   3.644
 3232SOL    HW2 9724   2.638   4.209   3.579
 3233SOL     OW 9725   3.312   4.944   3.495
 3233SOL    HW1 9726   3.303   4.934   3.594
 3233SOL    HW2 9727   3.408   4.937   3.469
 3234SOL     OW 9728   3.536   4.607   3.116
 3234SOL    HW1 9729   3.509   4.518   3.079
 3234SOL    HW2 9730   3.537   4.675   3.043
 3235SOL     OW 9731   3.087   4.049   2.311
 3235SOL    HW1 9732   3.152   3.975   2.300
 3235SOL    HW2 9733   3.107   4.099   2.395
 3236SOL     OW 9734   2.456   4.469   2.514
 3236SOL    HW1 9735   2.506   4.554   2.495
 3236SOL    HW2 9736   2.368   4.471   2.466
 3237SOL     OW 9737   3.639   4.066   3.504
 3237SOL    HW1 9738   3.622   4.097   3.410
 3237SOL    HW2 9739   3.555   4.029   3.542
 3238SOL     OW 9740   3.592   4.658   3.379
 3238SOL    HW1 9741   3.630   4.749   3.394
 3238SOL    HW2 9742   3.584   4.641   3.280
 3239SOL     OW 9743   2.721   5.098   1.878
 3239SOL    HW1 9744   2.675   5.113   1.966
 3239SOL    HW2 9745   2.765   5.183   1.848
 3240SOL     OW 9746   2.721   4.680   2.723
 3240SOL    HW1 9747   2.775   4.611   2.771
 3240SOL    HW2 9748   2.689   4.749   2.789
 3241SOL     OW 9749   2.945   4.708   1.949
 3241SOL    HW1 9750   2.922   4.761   1.867
 3241SOL    HW2 9751   3.026   4.652   1.930
 3242SOL     OW 9752   2.083   5.038   3.706
 3242SOL    HW1 9753   2.018   4.965   3.685
 3242SOL    HW2 9754   2.087   5.052   3.804
 3243SOL     OW 9755   1.941   4.964   2.515
 3243SOL    HW1 9756   1.940   4.917   2.603
 3243SOL    HW2 9757   2.023   4.936   2.464
 3244SOL     OW 9758   2.534   5.115   3.486
 3244SOL    HW1 9759   2.456   5.065   3.524
 3244SOL    HW2 9760   2.531   5.210   3.517
 3245SOL     OW 9761   3.686   3.916   3.089
 3245SOL    HW1 9762   3.682   3.826   3.133
 3245SOL    HW2 9763   3.689   3.905   2.990
 3246SOL     OW 9764   2.290   4.148   2.382
 3246SOL    HW1 9765   2.320   4.076   2.320
 3246SOL    HW2 9766   2.251   4.108   2.465
 3247SOL     OW 9767   3.567   5.211   2.966
 3247SOL    HW1 9768   3.474   5.186   2.939
 3247SOL    HW2 9769   3.593   5.161   3.048
 3248SOL     OW 9770   2.179   4.271   3.142
 3248SOL    HW1 9771   2.217   4.212   3.214
 3248SOL    HW2 9772   2.219   4.245   3.054
 3249SOL     OW 9773   3.286   3.938   2.974
 3249SOL    HW1 9774   3.338   3.873   3.029
 3249SOL    HW2 9775   3.237   4.001   3.035
 3250SOL     OW 9776   2.863   3.758   3.016
 3250SOL    HW1 9777   2.800   3.686   2.985
 3250SOL    HW2 9778   2.956   3.722   3.016
 3251SOL     OW 9779   2.632   5.054   2.163
 3251SOL    HW1 9780   2.586   4.967   2.180
 3251SOL    HW2 9781   2.723   5.051   2.204
 3252SOL     OW 9782   2.480   5.291   3.146
 3252SOL    HW1 9783   2.475   5.373   3.203
 3252SOL    HW2 9784   2.569   5.288   3.101
 3253SOL     OW 9785   3.214   3.776   2.030
 3253SOL    HW1 9786   3.249   3.735   1.946
 3253SOL    HW2 9787   3.124   3.738   2.050
 3254SOL     OW 9788   3.162   4.177   2.553
 3254SOL    HW1 9789   3.103   4.257   2.557
 3254SOL    HW2 9790   3.177   4.142   2.646
 3255SOL     OW 9791   3.455   3.945   2.744
 3255SOL    HW1 9792   3.371   3.944   2.798
 3255SOL    HW2 9793   3.457   4.028   2.688
 3256SOL     OW 9794   1.901   4.801   2.162
 3256SOL    HW1 9795   2.000   4.790   2.153
 3256SOL    HW2 9796   1.861   4.715   2.194
 3257SOL     OW 9797   2.092   4.352   3.837
 3257SOL    HW1 9798   1.999   4.350   3.874
 3257SOL    HW2 9799   2.093   4.313   3.745
 3258SOL     OW 9800   2.087   3.999   4.720
 3258SOL    HW1 9801   2.122   3.982   4.812
 3258SOL    HW2 9802   1.999   3.954   4.708
 3259SOL     OW 9803   1.881   4.092   4.371
 3259SOL    HW1 9804   1.799   4.135   4.410
 3259SOL    HW2 9805   1.853   4.019   4.308
 3260SOL     OW 9806   2.431   4.999   4.889
 3260SOL    HW1 9807   2.338   4.992   4.852
 3260SOL    HW2 9808   2.442   5.088   4.933
 3261SOL     OW 9809   3.417   5.235   4.427
 3261SOL    HW1 9810   3.360   5.219   4.508
 3261SOL    HW2 9811   3.358   5.245   4.347
 3262SOL     OW 9812   2.997   4.427   4.441
 3262SOL    HW1 9813   3.054   4.505   4.416
 3262SOL    HW2 9814   2.937   4.453   4.517
 3263SOL     OW 9815   3.617   4.331   3.955
 3263SOL    HW1 9816   3.605   4.318   3.856
 3263SOL    HW2 9817   3.587   4.250   4.004
 3264SOL     OW 9818   2.630   4.868   4.747
 3264SOL    HW1 9819   2.552   4.885   4.807
 3264SOL    HW2 9820   2.664   4.955   4.711
 3265SOL     OW 9821   2.547   4.736   4.389
 3265SOL    HW1 9822   2.616   4.720   4.459
 3265SOL    HW2 9823   2.474   4.793   4.427
 3266SOL     OW 9824   2.197   5.159   4.785
 3266SOL    HW1 9825   2.119   5.128   4.732
 3266SOL    HW2 9826   2.255   5.217   4.728
 3267SOL     OW 9827   3.322   5.229   5.063
 3267SOL    HW1 9828   3.346   5.323   5.089
 3267SOL    HW2 9829   3.306   5.175   5.145
 3268SOL     OW 9830   2.300   4.116   5.223
 3268SOL    HW1 9831   2.382   4.060   5.232
 3268SOL    HW2 9832   2.219   4.058   5.227
 3269SOL     OW 9833   3.465   4.171   4.461
 3269SOL    HW1 9834   3.391   4.217   4.411
 3269SOL    HW2 9835   3.516   4.239   4.514
 3270SOL     OW 9836   2.093   5.437   4.207
 3270SOL    HW1 9837   2.127   5.514   4.261
 3270SOL    HW2 9838   2.137   5.437   4.117
 3271SOL     OW 9839   2.092   5.158   4.262
 3271SOL    HW1 9840   2.066   5.254   4.262
 3271SOL    HW2 9841   2.021   5.104   4.307
 3272SOL     OW 9842   2.102   4.815   4.610
 3272SOL    HW1 9843   2.116   4.731   4.662
 3272SOL    HW2 9844   2.047   4.879   4.665
 3273SOL     OW 9845   2.468   4.688   3.847
 3273SOL    HW1 9846   2.475   4.772   3.793
 3273SOL    HW2 9847   2.514   4.701   3.935
 3274SOL     OW 9848   3.456   3.838   5.204
 3274SOL    HW1 9849   3.438   3.905   5.132
 3274SOL    HW2 9850   3.453   3.884   5.293
 3275SOL     OW 9851   1.984   4.367   4.287
 3275SOL    HW1 9852   1.939   4.279   4.304
 3275SOL    HW2 9853   1.983   4.421   4.371
 3276SOL     OW 9854   1.889   5.320   3.841
 3276SOL    HW1 9855   1.870   5.224   3.862
 3276SOL    HW2 9856   1.856   5.378   3.916
 3277SOL     OW 9857   3.551   4.646   4.336
 3277SOL    HW1 9858   3.646   4.617   4.344
 3277SOL    HW2 9859   3.543   4.711   4.261
 3278SOL     OW 9860   3.503   4.832   4.156
 3278SOL    HW1 9861   3.589   4.834   4.104
 3278SOL    HW2 9862   3.517   4.879   4.244
 3279SOL     OW 9863   2.475   5.089   4.450
 3279SOL    HW1 9864   2.426   5.002   4.459
 3279SOL    HW2 9865   2.452   5.132   4.363
 3280SOL     OW 9866   2.671   3.728   4.226
 3280SOL    HW1 9867   2.711   3.819   4.217
 3280SOL    HW2 9868   2.571   3.736   4.232
 3281SOL     OW 9869   2.059   4.700   4.988
 3281SOL    HW1 9870   2.148   4.655   4.974
 3281SOL    HW2 9871   1.986   4.635   4.969
 3282SOL     OW 9872   3.387   4.723   3.914
 3282SOL    HW1 9873   3.324   4.647   3.927
 3282SOL    HW2 9874   3.435   4.741   4.000
 3283SOL     OW 9875   2.179   3.975   5.525
 3283SOL    HW1 9876   2.250   4.046   5.531
 3283SOL    HW2 9877   2.091   4.014   5.553
 3284SOL     OW 9878   3.328   5.141   4.677
 3284SOL    HW1 9879   3.269   5.147   4.757
 3284SOL    HW2 9880   3.313   5.053   4.631
 3285SOL     OW 9881   2.460   4.453   3.994
 3285SOL    HW1 9882   2.484   4.522   3.926
 3285SOL    HW2 9883   2.382   4.486   4.048
 3286SOL     OW 9884   3.143   4.069   4.668
 3286SOL    HW1 9885   3.057   4.019   4.655
 3286SOL    HW2 9886   3.205   4.015   4.724
 3287SOL     OW 9887   2.669   4.329   5.189
 3287SOL    HW1 9888   2.622   4.326   5.278
 3287SOL    HW2 9889   2.618   4.274   5.123
 3288SOL     OW 9890   2.853   4.134   4.966
 3288SOL    HW1 9891   2.776   4.168   5.020
 3288SOL    HW2 9892   2.819   4.083   4.887
 3289SOL     OW 9893   2.903   4.425   4.153
 3289SOL    HW1 9894   2.929   4.421   4.249
 3289SOL    HW2 9895   2.818   4.374   4.139
 3290SOL     OW 9896   1.938   4.535   4.513
 3290SOL    HW1 9897   2.037   4.523   4.522
 3290SOL    HW2 9898   1.914   4.630   4.534
 3291SOL     OW 9899   2.727   4.072   3.919
 3291SOL    HW1 9900   2.786   4.135   3.870
 3291SOL    HW2 9901   2.746   3.978   3.890
 3292SOL     OW 9902   3.224   4.868   4.269
 3292SOL    HW1 9903   3.307   4.839   4.221
 3292SOL    HW2 9904   3.175   4.935   4.213
 3293SOL     OW 9905   2.412   3.920   4.609
 3293SOL    HW1 9906   2.407   3.915   4.709
 3293SOL    HW2 9907   2.414   4.016   4.580
 3294SOL     OW 9908   2.870   5.180   4.201
 3294SOL    HW1 9909   2.824   5.252   4.149
 3294SOL    HW2 9910   2.866   5.200   4.299
 3295SOL     OW 9911   3.657   4.790   4.597
 3295SOL    HW1 9912   3.595   4.775   4.521
 3295SOL    HW2 9913   3.605   4.801   4.682
 3296SOL     OW 9914   2.183   4.667   3.966
 3296SOL    HW1 9915   2.265   4.706   3.924
 3296SOL    HW2 9916   2.156   4.585   3.917
 3297SOL     OW 9917   3.320   4.459   4.452
 3297SOL    HW1 9918   3.315   4.394   4.527
 3297SOL    HW2 9919   3.400   4.518   4.465
 3298SOL     OW 9920   2.973   5.500   3.961
 3298SOL    HW1 9921   2.913   5.438   4.011
 3298SOL    HW2 9922   3.004   5.456   3.876
 3299SOL     OW 9923   2.064   4.009   5.222
 3299SOL    HW1 9924   1.984   4.069   5.209
 3299SOL    HW2 9925   2.054   3.960   5.308
 3300SOL     OW 9926   3.494   5.101   3.805
 3300SOL    HW1 9927   3.462   5.195   3.795
 3300SOL    HW2 9928   3.418   5.038   3.793
 3301SOL     OW 9929   3.262   3.831   4.150
 3301SOL    HW1 9930   3.238   3.794   4.060
 3301SOL    HW2 9931   3.361   3.847   4.154
 3302SOL     OW 9932   2.244   4.424   4.204
 3302SOL    HW1 9933   2.289   4.334   4.201
 3302SOL    HW2 9934   2.150   4.413   4.237
 3303SOL     OW 9935   2.476   3.846   3.841
 3303SOL    HW1 9936   2.574   3.824   3.848
 3303SOL    HW2 9937   2.445   3.829   3.748
 3304SOL     OW 9938   2.665   5.126   4.648
 3304SOL    HW1 9939   2.755   5.140   4.606
 3304SOL    HW2 9940   2.594   5.128   4.577
 3305SOL     OW 9941   2.784   4.227   4.623
 3305SOL    HW1 9942   2.759   4.218   4.527
 3305SOL    HW2 9943   2.832   4.145   4.654
 3306SOL     OW 9944   2.401   3.788   4.236
 3306SOL    HW1 9945   2.320   3.789   4.294
 3306SOL    HW2 9946   2.404   3.871   4.181
 3307SOL     OW 9947   3.296   4.912   3.765
 3307SOL    HW1 9948   3.328   4.836   3.822
 3307SOL    HW2 9949   3.204   4.939   3.795
 3308SOL     OW 9950   2.159   3.759   3.895
 3308SOL    HW1 9951   2.208   3.843   3.874
 3308SOL    HW2 9952   2.221   3.694   3.940
 3309SOL     OW 9953   2.797   3.960   4.204
 3309SOL    HW1 9954   2.749   4.001   4.126
 3309SOL    HW2 9955   2.896   3.958   4.185
 3310SOL     OW 9956   3.089   5.294   4.517
 3310SOL    HW1 9957   3.110   5.368   4.452
 3310SOL    HW2 9958   3.157   5.294   4.590
 3311SOL     OW 9959   2.321   4.876   4.465
 3311SOL    HW1 9960   2.250   4.849   4.530
 3311SOL    HW2 9961   2.295   4.848   4.372
 3312SOL     OW 9962   2.894   4.273   3.740
 3312SOL    HW1 9963   2.853   4.355   3.701
 3312SOL    HW2 9964   2.958   4.299   3.813
 3313SOL     OW 9965   1.940   4.280   5.110
 3313SOL    HW1 9966   2.032   4.279   5.069
 3313SOL    HW2 9967   1.934   4.354   5.177
 3314SOL     OW 9968   2.423   3.946   4.871
 3314SOL    HW1 9969   2.461   3.862   4.908
 3314SOL    HW2 9970   2.335   3.965   4.915
 3315SOL     OW 9971   2.728   4.178   4.366
 3315SOL    HW1 9972   2.696   4.250   4.304
 3315SOL    HW2 9973   2.752   4.097   4.313
 3316SOL     OW 9974   2.879   3.763   4.477
 3316SOL    HW1 9975   2.807   3.768   4.408
 3316SOL    HW2 9976   2.855   3.694   4.546
 3317SOL     OW 9977   3.291   4.897   4.591
 3317SOL    HW1 9978   3.236   4.813   4.584
 3317SOL    HW2 9979   3.317   4.926   4.499
 3318SOL     OW 9980   3.328   4.314   4.716
 3318SOL    HW1 9981   3.298   4.219   4.723
 3318SOL    HW2 9982   3.401   4.330   4.782
 3319SOL     OW 9983   3.719   4.557   4.101
 3319SOL    HW1 9984   3.761   4.493   4.165
 3319SOL    HW2 9985   3.681   4.506   4.023
 3320SOL     OW 9986   2.350   5.109   3.898
 3320SOL    HW1 9987   2.263   5.094   3.945
 3320SOL    HW2 9988   2.333   5.135   3.803
 3321SOL     OW 9989   3.526   5.004   4.381
 3321SOL    HW1 9990   3.625   5.012   4.395
 3321SOL    HW2 9991   3.481   5.088   4.412
 3322SOL     OW 9992   3.252   4.299   3.802
 3322SOL    HW1 9993   3.198   4.278   3.883
 3322SOL    HW2 9994   3.343   4.258   3.811
 3323SOL     OW 9995   2.389   3.980   4.052
 3323SOL    HW1 9996   2.416   3.921   3.977
 3323SOL    HW2 9997   2.389   4.075   4.021
 3324SOL     OW 9998   2.926   5.071   5.064
 3324SOL    HW1 9999   2.846   5.048   5.119
 3324SOL    HW210000   3.009   5.045   5.113
 3325SOL     OW10001   2.973   4.919   4.824
 3325SOL    HW110002   2.933   4.963   4.905
 3325SOL    HW210003   2.932   4.956   4.741
 3326SOL     OW10004   3.500   4.823   4.803
 3326SOL    HW110005   3.505   4.904   4.862
 3326SOL    HW210006   3.414   4.825   4.752
 3327SOL     OW10007   2.777   3.813   5.126
 3327SOL    HW110008   2.802   3.793   5.031
 3327SOL    HW210009   2.849   3.869   5.168
 3328SOL     OW10010   2.567   4.774   4.092
 3328SOL    HW110011   2.553   4.781   4.191
 3328SOL    HW210012   2.651   4.723   4.074
 3329SOL     OW10013   2.272   4.537   4.975
 3329SOL    HW110014   2.358   4.549   5.025
 3329SOL    HW210015   2.230   4.450   5.002
 3330SOL     OW10016   3.136   4.110   4.986
 3330SOL    HW110017   3.157   4.184   5.050
 3330SOL    HW210018   3.047   4.127   4.943
 3331SOL     OW10019   2.229   4.824   4.225
 3331SOL    HW110020   2.222   4.907   4.169
 3331SOL    HW210021   2.233   4.744   4.165
 3332SOL     OW10022   2.428   4.261   4.589
 3332SOL    HW110023   2.440   4.327   4.515
 3332SOL    HW210024   2.474   4.295   4.672
 3333SOL     OW10025   3.114   5.072   4.112
 3333SOL    HW110026   3.164   5.149   4.152
 3333SOL    HW210027   3.019   5.074   4.144
 3334SOL     OW10028   3.134   5.169   4.866
 3334SOL    HW110029   3.181   5.182   4.953
 3334SOL    HW210030   3.068   5.095   4.875
 3335SOL     OW10031   3.444   4.363   4.196
 3335SOL    HW110032   3.413   4.424   4.269
 3335SOL    HW210033   3.494   4.415   4.127
 3336SOL     OW10034   2.216   5.234   5.053
 3336SOL    HW110035   2.195   5.190   4.966
 3336SOL    HW210036   2.313   5.260   5.056
 3337SOL     OW10037   2.264   4.475   5.322
 3337SOL    HW110038   2.332   4.530   5.275
 3337SOL    HW210039   2.304   4.387   5.349
 3338SOL     OW10040   3.449   4.503   5.394
 3338SOL    HW110041   3.357   4.541   5.389
 3338SOL    HW210042   3.509   4.550   5.329
 3339SOL     OW10043   2.435   4.594   4.753
 3339SOL    HW110044   2.479   4.683   4.744
 3339SOL    HW210045   2.372   4.594   4.830
 3340SOL     OW10046   3.222   4.586   4.769
 3340SOL    HW110047   3.147   4.586   4.703
 3340SOL    HW210048   3.259   4.494   4.778
 3341SOL     OW10049   3.071   4.249   3.999
 3341SOL    HW110050   3.084   4.165   4.053
 3341SOL    HW210051   3.042   4.323   4.059
 3342SOL     OW10052   2.169   3.937   4.955
 3342SOL    HW110053   2.146   3.974   5.045
 3342SOL    HW210054   2.139   3.842   4.949
 3343SOL     OW10055   1.899   5.034   5.006
 3343SOL    HW110056   1.952   4.985   5.074
 3343SOL    HW210057   1.921   5.132   5.011
 3344SOL     OW10058   2.594   4.358   4.788
 3344SOL    HW110059   2.653   4.332   4.712
 3344SOL    HW210060   2.566   4.454   4.777
 3345SOL     OW10061   2.169   3.787   4.342
 3345SOL    HW110062   2.158   3.881   4.375
 3345SOL    HW210063   2.164   3.724   4.419
 3346SOL     OW10064   3.484   4.091   4.098
 3346SOL    HW110065   3.486   4.015   4.162
 3346SOL    HW210066   3.436   4.168   4.138
 3347SOL     OW10067   2.885   4.490   4.690
 3347SOL    HW110068   2.900   4.511   4.786
 3347SOL    HW210069   2.855   4.395   4.681
 3348SOL     OW10070   3.402   3.998   3.849
 3348SOL    HW110071   3.341   3.923   3.872
 3348SOL    HW210072   3.424   4.050   3.932
 3349SOL     OW10073   3.165   4.562   3.766
 3349SOL    HW110074   3.199   4.469   3.781
 3349SOL    HW210075   3.183   4.589   3.671
 3350SOL     OW10076   2.930   5.057   4.573
 3350SOL    HW110077   2.937   4.973   4.518
 3350SOL    HW210078   2.992   5.126   4.537
 3351SOL     OW10079   2.181   4.534   4.673
 3351SOL    HW110080   2.274   4.570   4.678
 3351SOL    HW210081   2.175   4.449   4.725
 3352SOL     OW10082   2.201   4.233   4.730
 3352SOL    HW110083   2.149   4.150   4.713
 3352SOL    HW210084   2.278   4.238   4.666
 3353SOL     OW10085   3.000   4.104   5.402
 3353SOL    HW110086   2.955   4.167   5.466
 3353SOL    HW210087   3.093   4.135   5.385
 3354SOL     OW10088   3.022   3.931   5.201
 3354SOL    HW110089   3.022   3.995   5.278
 3354SOL    HW210090   3.050   3.979   5.118
 3355SOL     OW10091   1.870   5.050   3.924
 3355SOL    HW110092   1.777   5.071   3.893
 3355SOL    HW210093   1.880   4.951   3.937
 3356SOL     OW10094   2.864   4.520   4.962
 3356SOL    HW110095   2.905   4.488   5.048
 3356SOL    HW210096   2.768   4.493   4.959
 3357SOL     OW10097   1.902   4.268   4.838
 3357SOL    HW110098   1.987   4.235   4.797
 3357SOL    HW210099   1.915   4.283   4.936
 3358SOL     OW10100   2.677   4.296   4.049
 3358SOL    HW110101   2.684   4.207   4.003
 3358SOL    HW210102   2.583   4.330   4.041
 3359SOL     OW10103   3.519   4.328   4.930
 3359SOL    HW110104   3.481   4.259   4.992
 3359SOL    HW210105   3.601   4.292   4.886
 3360SOL     OW10106   2.533   4.188   4.993
 3360SOL    HW110107   2.499   4.099   4.963
 3360SOL    HW210108   2.559   4.242   4.913
 3361SOL     OW10109   2.335   4.224   3.915
 3361SOL    HW110110   2.396   4.304   3.919
 3361SOL    HW210111   2.240   4.255   3.922
 3362SOL     OW10112   2.021   4.861   5.190
 3362SOL    HW110113   2.043   4.800   5.266
 3362SOL    HW210114   2.031   4.812   5.104
 3363SOL     OW10115   3.209   4.783   4.958
 3363SOL    HW110116   3.233   4.720   4.884
 3363SOL    HW210117   3.119   4.823   4.940
 3364SOL     OW10118   3.164   4.579   4.033
 3364SOL    HW110119   3.078   4.548   4.075
 3364SOL    HW210120   3.160   4.565   3.934
 3365SOL     OW10121   1.945   4.982   4.746
 3365SOL    HW110122   1.940   4.981   4.846
 3365SOL    HW210123   1.862   4.941   4.708
 3366SOL     OW10124   3.588   3.859   4.247
 3366SOL    HW110125   3.661   3.842   4.180
 3366SOL    HW210126   3.557   3.772   4.285
 3367SOL     OW10127   3.142   4.651   4.396
 3367SOL    HW110128   3.202   4.570   4.398
 3367SOL    HW210129   3.182   4.720   4.336
 3368SOL     OW10130   3.703   3.899   4.687
 3368SOL    HW110131   3.742   3.814   4.651
 3368SOL    HW210132   3.605   3.901   4.668
 3369SOL     OW10133   2.125   4.050   4.444
 3369SOL    HW110134   2.046   4.101   4.410
 3369SOL    HW210135   2.116   4.035   4.542
 3370SOL     OW10136   2.684   4.726   5.096
 3370SOL    HW110137   2.724   4.725   5.004
 3370SOL    HW210138   2.694   4.818   5.136
 3371SOL     OW10139   2.778   4.634   4.015
 3371SOL    HW110140   2.841   4.672   3.947
 3371SOL    HW210141   2.818   4.551   4.054
 3372SOL     OW10142   2.234   5.012   5.214
 3372SOL    HW110143   2.221   5.105   5.180
 3372SOL    HW210144   2.150   4.960   5.201
 3373SOL     OW10145   3.476   5.016   5.013
 3373SOL    HW110146   3.536   5.019   5.093
 3373SOL    HW210147   3.401   5.080   5.026
 3374SOL     OW10148   2.901   4.822   4.420
 3374SOL    HW110149   2.831   4.775   4.474
 3374SOL    HW210150   2.960   4.754   4.377
 3375SOL     OW10151   2.876   3.960   4.695
 3375SOL    HW110152   2.868   3.924   4.602
 3375SOL    HW210153   2.874   3.884   4.760
 3376SOL     OW10154   3.571   4.109   5.105
 3376SOL    HW110155   3.644   4.178   5.109
 3376SOL    HW210156   3.599   4.034   5.046
 3377SOL     OW10157   2.117   5.072   4.014
 3377SOL    HW110158   2.021   5.073   3.987
 3377SOL    HW210159   2.129   5.125   4.098
 3378SOL     OW10160   1.937   4.069   3.757
 3378SOL    HW110161   1.845   4.041   3.728
 3378SOL    HW210162   1.968   4.146   3.701
 3379SOL     OW10163   3.302   4.580   5.122
 3379SOL    HW110164   3.245   4.632   5.059
 3379SOL    HW210165   3.398   4.592   5.098
 3380SOL     OW10166   1.934   3.890   4.042
 3380SOL    HW110167   1.917   3.973   3.988
 3380SOL    HW210168   2.024   3.853   4.020
 3381SOL     OW10169   3.045   5.059   3.843
 3381SOL    HW110170   2.946   5.048   3.845
 3381SOL    HW210171   3.079   5.074   3.936
 3382SOL     OW10172   2.475   4.566   5.155
 3382SOL    HW110173   2.531   4.647   5.138
 3382SOL    HW210174   2.534   4.486   5.158
 3383SOL     OW10175   3.536   4.607   4.978
 3383SOL    HW110176   3.509   4.518   4.941
 3383SOL    HW210177   3.537   4.675   4.905
 3384SOL     OW10178   3.087   4.049   4.173
 3384SOL    HW110179   3.152   3.975   4.162
 3384SOL    HW210180   3.107   4.099   4.257
 3385SOL     OW10181   2.456   4.469   4.376
 3385SOL    HW110182   2.506   4.554   4.357
 3385SOL    HW210183   2.368   4.471   4.328
 3386SOL     OW10184   3.639   4.066   5.366
 3386SOL    HW110185   3.622   4.097   5.272
 3386SOL    HW210186   3.555   4.029   5.404
 3387SOL     OW10187   3.592   4.658   5.241
 3387SOL    HW110188   3.630   4.749   5.256
 3387SOL    HW210189   3.584   4.641   5.142
 3388SOL     OW10190   2.721   5.098   3.740
 3388SOL    HW110191   2.675   5.113   3.828
 3388SOL    HW210192   2.765   5.183   3.710
 3389SOL     OW10193   2.721   4.680   4.585
 3389SOL    HW110194   2.775   4.611   4.633
 3389SOL    HW210195   2.689   4.749   4.651
 3390SOL     OW10196   2.945   4.708   3.811
 3390SOL    HW110197   2.922   4.761   3.729
 3390SOL    HW210198   3.026   4.652   3.792
 3391SOL     OW10199   1.941   4.964   4.377
 3391SOL    HW110200   1.940   4.917   4.465
 3391SOL    HW210201   2.023   4.936   4.326
 3392SOL     OW10202   3.686   3.916   4.951
 3392SOL    HW110203   3.682   3.826   4.995
 3392SOL    HW210204   3.689   3.905   4.852
 3393SOL     OW10205   2.290   4.148   4.244
 3393SOL    HW110206   2.320   4.076   4.182
 3393SOL    HW210207   2.251   4.108   4.327
 3394SOL     OW10208   3.567   5.211   4.828
 3394SOL    HW110209   3.474   5.186   4.801
 3394SOL    HW210210   3.593   5.161   4.910
 3395SOL     OW10211   2.179   4.271   5.004
 3395SOL    HW110212   2.217   4.212   5.076
 3395SOL    HW210213   2.219   4.245   4.916
 3396SOL     OW10214   3.286   3.938   4.836
 3396SOL    HW110215   3.338   3.873   4.891
 3396SOL    HW210216   3.237   4.001   4.897
 3397SOL     OW10217   2.863   3.758   4.878
 3397SOL    HW110218   2.800   3.686   4.847
 3397SOL    HW210219   2.956   3.722   4.878
 3398SOL     OW10220   2.632   5.054   4.025
 3398SOL    HW110221   2.586   4.967   4.042
 3398SOL    HW210222   2.723   5.051   4.066
 3399SOL     OW10223   2.480   5.291   5.008
 3399SOL    HW110224   2.475   5.373   5.065
 3399SOL    HW210225   2.569   5.288   4.963
 3400SOL     OW10226   3.214   3.776   3.892
 3400SOL    HW110227   3.249   3.735   3.808
 3400SOL    HW210228   3.124   3.738   3.912
 3401SOL     OW10229   3.162   4.177   4.415
 3401SOL    HW110230   3.103   4.257   4.419
 3401SOL    HW210231   3.177   4.142   4.508
 3402SOL     OW10232   3.455   3.945   4.606
 3402SOL    HW110233   3.371   3.944   4.660
 3402SOL    HW210234   3.457   4.028   4.550
 3403SOL     OW10235   1.901   4.801   4.024
 3403SOL    HW110236   2.000   4.790   4.015
 3403SOL    HW210237   1.861   4.715   4.056
 3404SOL     OW10238   3.954   0.628   0.113
 3404SOL    HW110239   3.861   0.626   0.150
 3404SOL    HW210240   3.955   0.589   0.021
 3405SOL     OW10241   3.949   0.275   0.996
 3405SOL    HW110242   3.984   0.258   1.088
 3405SOL    HW210243   3.861   0.230   0.984
 3406SOL     OW10244   3.743   0.368   0.647
 3406SOL    HW110245   3.661   0.411   0.686
 3406SOL    HW210246   3.715   0.295   0.584
 3407SOL     OW10247   4.293   1.275   1.165
 3407SOL    HW110248   4.200   1.268   1.128
 3407SOL    HW210249   4.304   1.364   1.209
 3408SOL     OW10250   5.279   1.511   0.703
 3408SOL    HW110251   5.222   1.495   0.784
 3408SOL    HW210252   5.220   1.521   0.623
 3409SOL     OW10253   4.859   0.703   0.717
 3409SOL    HW110254   4.916   0.781   0.692
 3409SOL    HW210255   4.799   0.729   0.793
 3410SOL     OW10256   4.492   1.144   1.023
 3410SOL    HW110257   4.414   1.161   1.083
 3410SOL    HW210258   4.526   1.231   0.987
 3411SOL     OW10259   4.574   0.798   1.823
 3411SOL    HW110260   4.570   0.874   1.888
 3411SOL    HW210261   4.596   0.834   1.732
 3412SOL     OW10262   4.409   1.012   0.665
 3412SOL    HW110263   4.478   0.996   0.735
 3412SOL    HW210264   4.336   1.069   0.703
 3413SOL     OW10265   4.410   1.161   1.803
 3413SOL    HW110266   4.470   1.240   1.817
 3413SOL    HW210267   4.324   1.192   1.762
 3414SOL     OW10268   4.059   1.435   1.061
 3414SOL    HW110269   3.981   1.404   1.008
 3414SOL    HW210270   4.117   1.493   1.004
 3415SOL     OW10271   4.162   0.392   1.499
 3415SOL    HW110272   4.244   0.336   1.508
 3415SOL    HW210273   4.081   0.334   1.503
 3416SOL     OW10274   3.955   1.713   0.483
 3416SOL    HW110275   3.989   1.790   0.537
 3416SOL    HW210276   3.999   1.713   0.393
 3417SOL     OW10277   4.851   1.341   1.690
 3417SOL    HW110278   4.898   1.341   1.778
 3417SOL    HW210279   4.803   1.254   1.679
 3418SOL     OW10280   3.954   1.434   0.538
 3418SOL    HW110281   3.928   1.530   0.538
 3418SOL    HW210282   3.883   1.380   0.583
 3419SOL     OW10283   3.964   1.091   0.886
 3419SOL    HW110284   3.978   1.007   0.938
 3419SOL    HW210285   3.909   1.155   0.941
 3420SOL     OW10286   4.344   1.786   1.439
 3420SOL    HW110287   4.252   1.769   1.474
 3420SOL    HW210288   4.372   1.878   1.465
 3421SOL     OW10289   4.330   0.964   0.123
 3421SOL    HW110290   4.337   1.048   0.069
 3421SOL    HW210291   4.376   0.977   0.211
 3422SOL     OW10292   5.318   0.114   1.480
 3422SOL    HW110293   5.300   0.181   1.408
 3422SOL    HW210294   5.315   0.160   1.569
 3423SOL     OW10295   3.846   0.643   0.563
 3423SOL    HW110296   3.801   0.555   0.580
 3423SOL    HW210297   3.845   0.697   0.647
 3424SOL     OW10298   3.751   1.596   0.117
 3424SOL    HW110299   3.732   1.500   0.138
 3424SOL    HW210300   3.718   1.654   0.192
 3425SOL     OW10301   5.413   0.922   0.612
 3425SOL    HW110302   5.508   0.893   0.620
 3425SOL    HW210303   5.405   0.987   0.537
 3426SOL     OW10304   3.837   0.737   1.597
 3426SOL    HW110305   3.925   0.724   1.642
 3426SOL    HW210306   3.824   0.834   1.575
 3427SOL     OW10307   4.337   1.365   0.726
 3427SOL    HW110308   4.288   1.278   0.735
 3427SOL    HW210309   4.314   1.408   0.639
 3428SOL     OW10310   5.017   1.228   1.423
 3428SOL    HW110311   5.054   1.155   1.365
 3428SOL    HW210312   5.069   1.233   1.508
 3429SOL     OW10313   4.533   0.004   0.502
 3429SOL    HW110314   4.573   0.095   0.493
 3429SOL    HW210315   4.433   0.012   0.508
 3430SOL     OW10316   3.921   0.976   1.264
 3430SOL    HW110317   4.010   0.931   1.250
 3430SOL    HW210318   3.848   0.911   1.245
 3431SOL     OW10319   4.911   1.792   1.616
 3431SOL    HW110320   4.935   1.852   1.540
 3431SOL    HW210321   4.918   1.697   1.586
 3432SOL     OW10322   4.041   0.251   1.801
 3432SOL    HW110323   4.112   0.322   1.807
 3432SOL    HW210324   3.953   0.290   1.829
 3433SOL     OW10325   5.190   1.417   0.953
 3433SOL    HW110326   5.131   1.423   1.033
 3433SOL    HW210327   5.175   1.329   0.907
 3434SOL     OW10328   4.322   0.729   0.270
 3434SOL    HW110329   4.346   0.798   0.202
 3434SOL    HW210330   4.244   0.762   0.324
 3435SOL     OW10331   5.005   0.345   0.944
 3435SOL    HW110332   4.919   0.295   0.931
 3435SOL    HW210333   5.067   0.291   1.000
 3436SOL     OW10334   4.531   0.605   1.465
 3436SOL    HW110335   4.484   0.602   1.554
 3436SOL    HW210336   4.480   0.550   1.399
 3437SOL     OW10337   5.118   0.469   1.674
 3437SOL    HW110338   5.098   0.512   1.762
 3437SOL    HW210339   5.196   0.407   1.683
 3438SOL     OW10340   4.697   0.890   1.572
 3438SOL    HW110341   4.743   0.806   1.543
 3438SOL    HW210342   4.641   0.924   1.497
 3439SOL     OW10343   4.715   0.410   1.242
 3439SOL    HW110344   4.638   0.444   1.296
 3439SOL    HW210345   4.681   0.359   1.163
 3440SOL     OW10346   4.765   0.701   0.429
 3440SOL    HW110347   4.791   0.697   0.525
 3440SOL    HW210348   4.680   0.650   0.415
 3441SOL     OW10349   3.800   0.811   0.789
 3441SOL    HW110350   3.899   0.799   0.798
 3441SOL    HW210351   3.776   0.906   0.810
 3442SOL     OW10352   3.854   1.821   1.571
 3442SOL    HW110353   3.844   1.806   1.670
 3442SOL    HW210354   3.768   1.857   1.535
 3443SOL     OW10355   4.589   0.348   0.195
 3443SOL    HW110356   4.648   0.411   0.146
 3443SOL    HW210357   4.608   0.254   0.166
 3444SOL     OW10358   5.086   1.144   0.545
 3444SOL    HW110359   5.169   1.115   0.497
 3444SOL    HW210360   5.037   1.211   0.489
 3445SOL     OW10361   4.274   0.196   0.885
 3445SOL    HW110362   4.269   0.191   0.985
 3445SOL    HW210363   4.276   0.292   0.856
 3446SOL     OW10364   4.732   1.456   0.477
 3446SOL    HW110365   4.686   1.528   0.425
 3446SOL    HW210366   4.728   1.476   0.575
 3447SOL     OW10367   4.075   1.801   0.853
 3447SOL    HW110368   4.125   1.715   0.859
 3447SOL    HW210369   4.140   1.878   0.850
 3448SOL     OW10370   4.951   1.550   1.506
 3448SOL    HW110371   4.957   1.473   1.570
 3448SOL    HW210372   4.899   1.524   1.426
 3449SOL     OW10373   4.045   0.943   0.242
 3449SOL    HW110374   4.127   0.982   0.200
 3449SOL    HW210375   4.018   0.861   0.193
 3450SOL     OW10376   4.185   1.266   1.727
 3450SOL    HW110377   4.135   1.267   1.641
 3450SOL    HW210378   4.122   1.248   1.803
 3451SOL     OW10379   4.835   1.776   0.237
 3451SOL    HW110380   4.775   1.714   0.287
 3451SOL    HW210381   4.866   1.732   0.152
 3452SOL     OW10382   3.926   0.285   1.498
 3452SOL    HW110383   3.846   0.345   1.485
 3452SOL    HW210384   3.916   0.236   1.584
 3453SOL     OW10385   4.188   1.743   0.323
 3453SOL    HW110386   4.221   1.782   0.409
 3453SOL    HW210387   4.264   1.736   0.258
 3454SOL     OW10388   5.124   0.107   0.426
 3454SOL    HW110389   5.100   0.070   0.336
 3454SOL    HW210390   5.223   0.123   0.430
 3455SOL     OW10391   3.973   1.785   1.241
 3455SOL    HW110392   4.030   1.720   1.291
 3455SOL    HW210393   3.957   1.752   1.148
 3456SOL     OW10394   4.664   1.698   0.904
 3456SOL    HW110395   4.744   1.641   0.925
 3456SOL    HW210396   4.615   1.658   0.827
 3457SOL     OW10397   4.106   0.700   0.480
 3457SOL    HW110398   4.151   0.610   0.477
 3457SOL    HW210399   4.012   0.689   0.513
 3458SOL     OW10400   4.338   0.122   0.117
 3458SOL    HW110401   4.436   0.100   0.124
 3458SOL    HW210402   4.307   0.105   0.024
 3459SOL     OW10403   4.505   0.264   1.749
 3459SOL    HW110404   4.572   0.203   1.792
 3459SOL    HW210405   4.432   0.283   1.814
 3460SOL     OW10406   4.612   1.514   1.195
 3460SOL    HW110407   4.589   1.489   1.101
 3460SOL    HW210408   4.673   1.445   1.234
 3461SOL     OW10409   5.075   0.590   1.433
 3461SOL    HW110410   5.103   0.547   1.518
 3461SOL    HW210411   5.100   0.686   1.434
 3462SOL     OW10412   4.527   1.402   0.924
 3462SOL    HW110413   4.617   1.416   0.882
 3462SOL    HW210414   4.456   1.404   0.853
 3463SOL     OW10415   4.646   0.503   0.899
 3463SOL    HW110416   4.621   0.494   0.803
 3463SOL    HW210417   4.694   0.421   0.930
 3464SOL     OW10418   4.263   0.064   0.512
 3464SOL    HW110419   4.182   0.065   0.570
 3464SOL    HW210420   4.266   0.147   0.457
 3465SOL     OW10421   5.158   1.188   0.041
 3465SOL    HW110422   5.190   1.112   0.098
 3465SOL    HW210423   5.066   1.215   0.071
 3466SOL     OW10424   4.021   0.035   0.171
 3466SOL    HW110425   4.070   0.119   0.150
 3466SOL    HW210426   4.083  -0.030   0.216
 3467SOL     OW10427   4.659   0.236   0.480
 3467SOL    HW110428   4.611   0.277   0.402
 3467SOL    HW210429   4.758   0.234   0.461
 3468SOL     OW10430   4.800   0.683   1.464
 3468SOL    HW110431   4.720   0.622   1.467
 3468SOL    HW210432   4.881   0.630   1.440
 3469SOL     OW10433   4.951   1.570   0.793
 3469SOL    HW110434   4.972   1.644   0.728
 3469SOL    HW210435   5.019   1.570   0.866
 3470SOL     OW10436   4.183   1.152   0.741
 3470SOL    HW110437   4.112   1.125   0.806
 3470SOL    HW210438   4.157   1.124   0.648
 3471SOL     OW10439   4.995   1.797   0.591
 3471SOL    HW110440   5.039   1.861   0.527
 3471SOL    HW210441   4.945   1.849   0.661
 3472SOL     OW10442   4.756   0.549   0.016
 3472SOL    HW110443   4.715   0.631  -0.023
 3472SOL    HW210444   4.820   0.575   0.089
 3473SOL     OW10445   3.802   0.556   1.386
 3473SOL    HW110446   3.894   0.555   1.345
 3473SOL    HW210447   3.796   0.630   1.453
 3474SOL     OW10448   4.285   0.222   1.147
 3474SOL    HW110449   4.323   0.138   1.184
 3474SOL    HW210450   4.197   0.241   1.191
 3475SOL     OW10451   4.590   0.454   0.642
 3475SOL    HW110452   4.558   0.526   0.580
 3475SOL    HW210453   4.614   0.373   0.589
 3476SOL     OW10454   4.741   0.039   0.753
 3476SOL    HW110455   4.669   0.044   0.684
 3476SOL    HW210456   4.717  -0.030   0.822
 3477SOL     OW10457   5.153   1.173   0.867
 3477SOL    HW110458   5.098   1.089   0.860
 3477SOL    HW210459   5.179   1.202   0.775
 3478SOL     OW10460   4.212   1.385   0.174
 3478SOL    HW110461   4.125   1.370   0.221
 3478SOL    HW210462   4.195   1.411   0.079
 3479SOL     OW10463   5.114   0.575   0.078
 3479SOL    HW110464   5.060   0.554   0.159
 3479SOL    HW210465   5.205   0.534   0.087
 3480SOL     OW10466   4.251   0.256   0.328
 3480SOL    HW110467   4.278   0.197   0.253
 3480SOL    HW210468   4.251   0.351   0.297
 3481SOL     OW10469   4.788   1.347   1.340
 3481SOL    HW110470   4.708   1.324   1.395
 3481SOL    HW210471   4.871   1.321   1.389
 3482SOL     OW10472   5.316   1.629   1.625
 3482SOL    HW110473   5.343   1.663   1.535
 3482SOL    HW210474   5.395   1.591   1.671
 3483SOL     OW10475   4.835   1.195   1.100
 3483SOL    HW110476   4.795   1.239   1.181
 3483SOL    HW210477   4.794   1.232   1.017
 3484SOL     OW10478   4.639   0.089   1.402
 3484SOL    HW110479   4.664   0.069   1.307
 3484SOL    HW210480   4.711   0.145   1.444
 3485SOL     OW10481   4.704   1.116   1.719
 3485SOL    HW110482   4.605   1.122   1.729
 3485SOL    HW210483   4.727   1.036   1.663
 3486SOL     OW10484   4.429   1.050   0.368
 3486SOL    HW110485   4.415   1.057   0.467
 3486SOL    HW210486   4.513   0.999   0.350
 3487SOL     OW10487   4.134   0.813   1.251
 3487SOL    HW110488   4.220   0.825   1.301
 3487SOL    HW210489   4.092   0.726   1.278
 3488SOL     OW10490   4.998   0.386   1.262
 3488SOL    HW110491   5.019   0.460   1.326
 3488SOL    HW210492   4.909   0.403   1.219
 3489SOL     OW10493   3.788   1.564   1.331
 3489SOL    HW110494   3.742   1.646   1.297
 3489SOL    HW210495   3.886   1.583   1.340
 3490SOL     OW10496   4.091   1.100   0.501
 3490SOL    HW110497   4.084   1.183   0.445
 3490SOL    HW210498   4.095   1.020   0.441
 3491SOL     OW10499   4.290   0.537   0.865
 3491SOL    HW110500   4.302   0.603   0.791
 3491SOL    HW210501   4.336   0.571   0.948
 3492SOL     OW10502   4.976   1.348   0.388
 3492SOL    HW110503   5.026   1.425   0.428
 3492SOL    HW210504   4.881   1.350   0.420
 3493SOL     OW10505   4.996   1.445   1.142
 3493SOL    HW110506   5.043   1.458   1.229
 3493SOL    HW210507   4.930   1.371   1.151
 3494SOL     OW10508   4.078   1.510   1.329
 3494SOL    HW110509   4.057   1.466   1.242
 3494SOL    HW210510   4.175   1.536   1.332
 3495SOL     OW10511   4.126   0.751   1.598
 3495SOL    HW110512   4.194   0.806   1.551
 3495SOL    HW210513   4.166   0.663   1.625
 3496SOL     OW10514   4.737   0.105   1.770
 3496SOL    HW110515   4.743   0.190   1.718
 3496SOL    HW210516   4.769   0.029   1.713
 3497SOL     OW10517   4.228   0.050   1.740
 3497SOL    HW110518   4.186  -0.007   1.670
 3497SOL    HW210519   4.162   0.119   1.772
 3498SOL     OW10520   4.297   0.870   1.029
 3498SOL    HW110521   4.341   0.959   1.020
 3498SOL    HW210522   4.234   0.870   1.106
 3499SOL     OW10523   5.084   0.862   1.045
 3499SOL    HW110524   5.009   0.862   0.979
 3499SOL    HW210525   5.121   0.770   1.054
 3500SOL     OW10526   4.933   0.525   0.275
 3500SOL    HW110527   4.946   0.441   0.329
 3500SOL    HW210528   4.904   0.599   0.335
 3501SOL     OW10529   4.031   0.213   1.231
 3501SOL    HW110530   4.008   0.250   1.321
 3501SOL    HW210531   4.001   0.118   1.225
 3502SOL     OW10532   3.761   1.310   1.282
 3502SOL    HW110533   3.814   1.261   1.350
 3502SOL    HW210534   3.783   1.408   1.287
 3503SOL     OW10535   4.456   0.634   1.064
 3503SOL    HW110536   4.515   0.608   0.988
 3503SOL    HW210537   4.428   0.730   1.053
 3504SOL     OW10538   4.031   0.063   0.618
 3504SOL    HW110539   4.020   0.157   0.651
 3504SOL    HW210540   4.026   0.000   0.695
 3505SOL     OW10541   5.346   0.367   0.374
 3505SOL    HW110542   5.348   0.291   0.438
 3505SOL    HW210543   5.298   0.444   0.414
 3506SOL     OW10544   4.747   0.766   0.966
 3506SOL    HW110545   4.762   0.787   1.062
 3506SOL    HW210546   4.717   0.671   0.957
 3507SOL     OW10547   4.704   1.573   1.700
 3507SOL    HW110548   4.684   1.617   1.612
 3507SOL    HW210549   4.743   1.482   1.684
 3508SOL     OW10550   4.074   0.898   1.804
 3508SOL    HW110551   4.150   0.942   1.852
 3508SOL    HW210552   4.109   0.851   1.722
 3509SOL     OW10553   5.027   0.838   0.042
 3509SOL    HW110554   5.061   0.745   0.057
 3509SOL    HW210555   5.045   0.865  -0.053
 3510SOL     OW10556   4.792   1.333   0.849
 3510SOL    HW110557   4.799   1.249   0.794
 3510SOL    HW210558   4.854   1.402   0.813
 3511SOL     OW10559   4.043   0.810   0.949
 3511SOL    HW110560   4.136   0.846   0.954
 3511SOL    HW210561   4.037   0.725   1.001
 3512SOL     OW10562   4.063   0.509   1.006
 3512SOL    HW110563   4.011   0.426   0.989
 3512SOL    HW210564   4.140   0.514   0.942
 3513SOL     OW10565   4.862   0.380   1.678
 3513SOL    HW110566   4.817   0.443   1.742
 3513SOL    HW210567   4.955   0.411   1.661
 3514SOL     OW10568   4.884   0.207   1.477
 3514SOL    HW110569   4.884   0.271   1.554
 3514SOL    HW210570   4.912   0.255   1.394
 3515SOL     OW10571   3.732   1.326   0.200
 3515SOL    HW110572   3.639   1.347   0.169
 3515SOL    HW210573   3.742   1.227   0.213
 3516SOL     OW10574   3.812   1.801   0.927
 3516SOL    HW110575   3.770   1.715   0.900
 3516SOL    HW210576   3.906   1.804   0.893
 3517SOL     OW10577   4.228   1.568   0.910
 3517SOL    HW110578   4.294   1.642   0.919
 3517SOL    HW210579   4.272   1.489   0.868
 3518SOL     OW10580   4.726   0.796   1.238
 3518SOL    HW110581   4.767   0.764   1.324
 3518SOL    HW210582   4.630   0.769   1.235
 3519SOL     OW10583   3.764   0.544   1.114
 3519SOL    HW110584   3.849   0.511   1.073
 3519SOL    HW210585   3.777   0.559   1.212
 3520SOL     OW10586   3.913   0.520   1.722
 3520SOL    HW110587   3.972   0.480   1.652
 3520SOL    HW210588   3.855   0.591   1.681
 3521SOL     OW10589   5.093   0.950   1.660
 3521SOL    HW110590   5.132   1.039   1.680
 3521SOL    HW210591   5.103   0.930   1.563
 3522SOL     OW10592   4.539   0.572   0.325
 3522SOL    HW110593   4.546   0.483   0.279
 3522SOL    HW210594   4.445   0.606   0.317
 3523SOL     OW10595   3.976   1.564   1.744
 3523SOL    HW110596   3.946   1.621   1.820
 3523SOL    HW210597   3.969   1.467   1.770
 3524SOL     OW10598   4.395   0.464   1.269
 3524SOL    HW110599   4.361   0.375   1.239
 3524SOL    HW210600   4.421   0.518   1.189
 3525SOL     OW10601   4.654   1.678   1.465
 3525SOL    HW110602   4.630   1.660   1.370
 3525SOL    HW210603   4.684   1.772   1.475
 3526SOL     OW10604   4.197   0.500   0.191
 3526SOL    HW110605   4.258   0.580   0.195
 3526SOL    HW210606   4.102   0.531   0.198
 3527SOL     OW10607   3.883   1.137   1.466
 3527SOL    HW110608   3.905   1.076   1.542
 3527SOL    HW210609   3.893   1.088   1.380
 3528SOL     OW10610   5.071   1.059   1.234
 3528SOL    HW110611   5.095   0.996   1.160
 3528SOL    HW210612   4.981   1.099   1.216
 3529SOL     OW10613   5.026   0.855   0.309
 3529SOL    HW110614   4.940   0.824   0.351
 3529SOL    HW210615   5.022   0.841   0.210
 3530SOL     OW10616   4.976   1.731   1.128
 3530SOL    HW110617   5.060   1.736   1.074
 3530SOL    HW210618   4.953   1.635   1.146
 3531SOL     OW10619   3.807   1.258   1.022
 3531SOL    HW110620   3.802   1.257   1.122
 3531SOL    HW210621   3.724   1.217   0.984
 3532SOL     OW10622   4.412   1.662   1.716
 3532SOL    HW110623   4.356   1.743   1.725
 3532SOL    HW210624   4.464   1.666   1.630
 3533SOL     OW10625   4.627   0.086   0.133
 3533SOL    HW110626   4.678   0.087   0.047
 3533SOL    HW210627   4.683   0.044   0.204
 3534SOL     OW10628   5.112   1.573   0.477
 3534SOL    HW110629   5.179   1.585   0.403
 3534SOL    HW210630   5.072   1.662   0.500
 3535SOL     OW10631   3.854   1.794   1.851
 3535SOL    HW110632   3.813   1.720   1.904
 3535SOL    HW210633   3.918   1.845   1.909
 3536SOL     OW10634   5.004   0.927   0.672
 3536SOL    HW110635   5.064   0.846   0.674
 3536SOL    HW210636   5.044   0.996   0.612
 3537SOL     OW10637   4.554   1.273   1.422
 3537SOL    HW110638   4.549   1.306   1.517
 3537SOL    HW210639   4.468   1.292   1.376
 3538SOL     OW10640   4.396   1.616   0.154
 3538SOL    HW110641   4.405   1.626   0.055
 3538SOL    HW210642   4.356   1.527   0.175
 3539SOL     OW10643   3.987   0.326   0.720
 3539SOL    HW110644   3.908   0.377   0.686
 3539SOL    HW210645   3.978   0.311   0.818
 3540SOL     OW10646   4.918   1.612   0.031
 3540SOL    HW110647   4.924   1.519   0.068
 3540SOL    HW210648   4.859   1.612  -0.049
 3541SOL     OW10649   4.546   1.002   1.372
 3541SOL    HW110650   4.586   1.001   1.280
 3541SOL    HW210651   4.556   1.094   1.412
 3542SOL     OW10652   4.640   0.910   0.291
 3542SOL    HW110653   4.703   0.948   0.223
 3542SOL    HW210654   4.680   0.827   0.330
 3543SOL     OW10655   4.096   1.288   1.490
 3543SOL    HW110656   4.083   1.381   1.456
 3543SOL    HW210657   4.012   1.236   1.477
 3544SOL     OW10658   4.763   1.098   0.696
 3544SOL    HW110659   4.693   1.051   0.750
 3544SOL    HW210660   4.822   1.030   0.653
 3545SOL     OW10661   4.738   0.236   0.971
 3545SOL    HW110662   4.730   0.200   0.878
 3545SOL    HW210663   4.736   0.160   1.036
 3546SOL     OW10664   4.314   1.487   0.491
 3546SOL    HW110665   4.356   1.429   0.421
 3546SOL    HW210666   4.270   1.566   0.447
 3547SOL     OW10667   3.979   1.348   0.290
 3547SOL    HW110668   3.883   1.349   0.263
 3547SOL    HW210669   3.991   1.401   0.374
 3548SOL     OW10670   3.829   1.013   1.726
 3548SOL    HW110671   3.752   0.980   1.780
 3548SOL    HW210672   3.914   0.983   1.768
 3549SOL     OW10673   4.396   0.203   1.489
 3549SOL    HW110674   4.486   0.187   1.449
 3549SOL    HW210675   4.404   0.208   1.588
 3550SOL     OW10676   5.164   0.856   1.398
 3550SOL    HW110677   5.107   0.908   1.335
 3550SOL    HW210678   5.260   0.868   1.374
 3551SOL     OW10679   3.796   0.166   0.318
 3551SOL    HW110680   3.779   0.249   0.264
 3551SOL    HW210681   3.886   0.129   0.296
 3552SOL     OW10682   4.907   1.335   0.119
 3552SOL    HW110683   4.808   1.324   0.121
 3552SOL    HW210684   4.941   1.350   0.212
 3553SOL     OW10685   4.337   0.842   1.431
 3553SOL    HW110686   4.393   0.923   1.414
 3553SOL    HW210687   4.396   0.762   1.434
 3554SOL     OW10688   4.440   0.565   1.708
 3554SOL    HW110689   4.459   0.630   1.782
 3554SOL    HW210690   4.500   0.485   1.717
 3555SOL     OW10691   5.174   1.220   1.633
 3555SOL    HW110692   5.165   1.210   1.732
 3555SOL    HW210693   5.270   1.213   1.607
 3556SOL     OW10694   4.114   1.741   1.560
 3556SOL    HW110695   4.023   1.782   1.558
 3556SOL    HW210696   4.107   1.647   1.592
 3557SOL     OW10697   4.949   0.325   0.449
 3557SOL    HW110698   5.014   0.251   0.438
 3557SOL    HW210699   4.969   0.375   0.533
 3558SOL     OW10700   4.318   0.745   0.652
 3558SOL    HW110701   4.368   0.830   0.633
 3558SOL    HW210702   4.230   0.747   0.604
 3559SOL     OW10703   4.583   1.374   0.016
 3559SOL    HW110704   4.537   1.389   0.104
 3559SOL    HW210705   4.627   1.459  -0.014
 3560SOL     OW10706   4.385   1.790   0.953
 3560SOL    HW110707   4.339   1.878   0.940
 3560SOL    HW210708   4.484   1.802   0.946
 3561SOL     OW10709   4.583   0.956   0.861
 3561SOL    HW110710   4.637   0.887   0.909
 3561SOL    HW210711   4.551   1.025   0.927
 3562SOL     OW10712   4.807   0.984   0.087
 3562SOL    HW110713   4.784   1.037   0.005
 3562SOL    HW210714   4.888   0.928   0.068
 3563SOL     OW10715   3.945   1.314   1.844
 3563SOL    HW110716   3.880   1.241   1.823
 3563SOL    HW210717   3.949   1.328   1.942
 3564SOL     OW10718   3.803   1.240   0.653
 3564SOL    HW110719   3.802   1.193   0.741
 3564SOL    HW210720   3.885   1.212   0.602
 3565SOL     OW10721   4.396   1.391   1.624
 3565SOL    HW110722   4.318   1.341   1.662
 3565SOL    HW210723   4.393   1.486   1.655
 3566SOL     OW10724   4.152   0.424   0.520
 3566SOL    HW110725   4.182   0.352   0.458
 3566SOL    HW210726   4.113   0.384   0.603
 3567SOL     OW10727   5.429   1.487   1.104
 3567SOL    HW110728   5.336   1.462   1.077
 3567SOL    HW210729   5.455   1.437   1.186
 3568SOL     OW10730   4.041   0.547   1.280
 3568SOL    HW110731   4.079   0.488   1.352
 3568SOL    HW210732   4.081   0.521   1.192
 3569SOL     OW10733   4.536   1.586   0.687
 3569SOL    HW110734   4.568   1.596   0.593
 3569SOL    HW210735   4.457   1.524   0.689
 3570SOL     OW10736   5.148   0.214   1.112
 3570SOL    HW110737   5.200   0.149   1.167
 3570SOL    HW210738   5.099   0.277   1.173
 3571SOL     OW10739   4.725   0.034   1.154
 3571SOL    HW110740   4.662  -0.038   1.123
 3571SOL    HW210741   4.818  -0.002   1.154
 3572SOL     OW10742   4.494   1.330   0.301
 3572SOL    HW110743   4.448   1.243   0.318
 3572SOL    HW210744   4.585   1.327   0.342
 3573SOL     OW10745   4.342   1.567   1.284
 3573SOL    HW110746   4.337   1.649   1.341
 3573SOL    HW210747   4.431   1.564   1.239
 3574SOL     OW10748   5.076   0.052   0.168
 3574SOL    HW110749   5.111   0.011   0.084
 3574SOL    HW210750   4.986   0.014   0.188
 3575SOL     OW10751   5.024   0.453   0.691
 3575SOL    HW110752   4.965   0.533   0.695
 3575SOL    HW210753   5.039   0.418   0.784
 3576SOL     OW10754   3.763   1.077   0.300
 3576SOL    HW110755   3.862   1.066   0.291
 3576SOL    HW210756   3.723   0.991   0.332
 3577SOL     OW10757   4.599   1.646   0.337
 3577SOL    HW110758   4.522   1.611   0.283
 3577SOL    HW210759   4.567   1.717   0.399
 3578SOL     OW10760   3.954   0.628   1.975
 3578SOL    HW110761   3.861   0.626   2.012
 3578SOL    HW210762   3.955   0.589   1.883
 3579SOL     OW10763   3.949   0.275   2.858
 3579SOL    HW110764   3.984   0.258   2.950
 3579SOL    HW210765   3.861   0.230   2.846
 3580SOL     OW10766   3.743   0.368   2.509
 3580SOL    HW110767   3.661   0.411   2.548
 3580SOL    HW210768   3.715   0.295   2.446
 3581SOL     OW10769   4.293   1.275   3.027
 3581SOL    HW110770   4.200   1.268   2.990
 3581SOL    HW210771   4.304   1.364   3.071
 3582SOL     OW10772   5.279   1.511   2.565
 3582SOL    HW110773   5.222   1.495   2.646
 3582SOL    HW210774   5.220   1.521   2.485
 3583SOL     OW10775   4.859   0.703   2.579
 3583SOL    HW110776   4.916   0.781   2.554
 3583SOL    HW210777   4.799   0.729   2.655
 3584SOL     OW10778   4.492   1.144   2.885
 3584SOL    HW110779   4.414   1.161   2.945
 3584SOL    HW210780   4.526   1.231   2.849
 3585SOL     OW10781   4.574   0.798   3.685
 3585SOL    HW110782   4.570   0.874   3.750
 3585SOL    HW210783   4.596   0.834   3.594
 3586SOL     OW10784   4.409   1.012   2.527
 3586SOL    HW110785   4.478   0.996   2.597
 3586SOL    HW210786   4.336   1.069   2.565
 3587SOL     OW10787   4.410   1.161   3.665
 3587SOL    HW110788   4.470   1.240   3.679
 3587SOL    HW210789   4.324   1.192   3.624
 3588SOL     OW10790   4.059   1.435   2.923
 3588SOL    HW110791   3.981   1.404   2.870
 3588SOL    HW210792   4.117   1.493   2.866
 3589SOL     OW10793   4.162   0.392   3.361
 3589SOL    HW110794   4.244   0.336   3.370
 3589SOL    HW210795   4.081   0.334   3.365
 3590SOL     OW10796   3.955   1.713   2.345
 3590SOL    HW110797   3.989   1.790   2.399
 3590SOL    HW210798   3.999   1.713   2.255
 3591SOL     OW10799   4.851   1.341   3.552
 3591SOL    HW110800   4.898   1.341   3.640
 3591SOL    HW210801   4.803   1.254   3.541
 3592SOL     OW10802   3.954   1.434   2.400
 3592SOL    HW110803   3.928   1.530   2.400
 3592SOL    HW210804   3.883   1.380   2.445
 3593SOL     OW10805   3.964   1.091   2.748
 3593SOL    HW110806   3.978   1.007   2.800
 3593SOL    HW210807   3.909   1.155   2.803
 3594SOL     OW10808   4.344   1.786   3.301
 3594SOL    HW110809   4.252   1.769   3.336
 3594SOL    HW210810   4.372   1.878   3.327
 3595SOL     OW10811   4.330   0.964   1.985
 3595SOL    HW110812   4.337   1.048   1.931
 3595SOL    HW210813   4.376   0.977   2.073
 3596SOL     OW10814   5.318   0.114   3.342
 3596SOL    HW110815   5.300   0.181   3.270
 3596SOL    HW210816   5.315   0.160   3.431
 3597SOL     OW10817   3.846   0.643   2.425
 3597SOL    HW110818   3.801   0.555   2.442
 3597SOL    HW210819   3.845   0.697   2.509
 3598SOL     OW10820   3.751   1.596   1.979
 3598SOL    HW110821   3.732   1.500   2.000
 3598SOL    HW210822   3.718   1.654   2.054
 3599SOL     OW10823   5.413   0.922   2.474
 3599SOL    HW110824   5.508   0.893   2.482
 3599SOL    HW210825   5.405   0.987   2.399
 3600SOL     OW10826   3.837   0.737   3.459
 3600SOL    HW110827   3.925   0.724   3.504
 3600SOL    HW210828   3.824   0.834   3.437
 3601SOL     OW10829   4.337   1.365   2.588
 3601SOL    HW110830   4.288   1.278   2.597
 3601SOL    HW210831   4.314   1.408   2.501
 3602SOL     OW10832   5.017   1.228   3.285
 3602SOL    HW110833   5.054   1.155   3.227
 3602SOL    HW210834   5.069   1.233   3.370
 3603SOL     OW10835   4.533   0.004   2.364
 3603SOL    HW110836   4.573   0.095   2.355
 3603SOL    HW210837   4.433   0.012   2.370
 3604SOL     OW10838   3.921   0.976   3.126
 3604SOL    HW110839   4.010   0.931   3.112
 3604SOL    HW210840   3.848   0.911   3.107
 3605SOL     OW10841   4.911   1.792   3.478
 3605SOL    HW110842   4.935   1.852   3.402
 3605SOL    HW210843   4.918   1.697   3.448
 3606SOL     OW10844   4.041   0.251   3.663
 3606SOL    HW110845   4.112   0.322   3.669
 3606SOL    HW210846   3.953   0.290   3.691
 3607SOL     OW10847   5.190   1.417   2.815
 3607SOL    HW110848   5.131   1.423   2.895
 3607SOL    HW210849   5.175   1.329   2.769
 3608SOL     OW10850   4.322   0.729   2.132
 3608SOL    HW110851   4.346   0.798   2.064
 3608SOL    HW210852   4.244   0.762   2.186
 3609SOL     OW10853   5.005   0.345   2.806
 3609SOL    HW110854   4.919   0.295   2.793
 3609SOL    HW210855   5.067   0.291   2.862
 3610SOL     OW10856   4.531   0.605   3.327
 3610SOL    HW110857   4.484   0.602   3.416
 3610SOL    HW210858   4.480   0.550   3.261
 3611SOL     OW10859   5.118   0.469   3.536
 3611SOL    HW110860   5.098   0.512   3.624
 3611SOL    HW210861   5.196   0.407   3.545
 3612SOL     OW10862   4.697   0.890   3.434
 3612SOL    HW110863   4.743   0.806   3.405
 3612SOL    HW210864   4.641   0.924   3.359
 3613SOL     OW10865   4.715   0.410   3.104
 3613SOL    HW110866   4.638   0.444   3.158
 3613SOL    HW210867   4.681   0.359   3.025
 3614SOL     OW10868   4.765   0.701   2.291
 3614SOL    HW110869   4.791   0.697   2.387
 3614SOL    HW210870   4.680   0.650   2.277
 3615SOL     OW10871   3.800   0.811   2.651
 3615SOL    HW110872   3.899   0.799   2.660
 3615SOL    HW210873   3.776   0.906   2.672
 3616SOL     OW10874   3.854   1.821   3.433
 3616SOL    HW110875   3.844   1.806   3.532
 3616SOL    HW210876   3.768   1.857   3.397
 3617SOL     OW10877   4.589   0.348   2.057
 3617SOL    HW110878   4.648   0.411   2.008
 3617SOL    HW210879   4.608   0.254   2.028
 3618SOL     OW10880   5.086   1.144   2.407
 3618SOL    HW110881   5.169   1.115   2.359
 3618SOL    HW210882   5.037   1.211   2.351
 3619SOL     OW10883   4.274   0.196   2.747
 3619SOL    HW110884   4.269   0.191   2.847
 3619SOL    HW210885   4.276   0.292   2.718
 3620SOL     OW10886   4.732   1.456   2.339
 3620SOL    HW110887   4.686   1.528   2.287
 3620SOL    HW210888   4.728   1.476   2.437
 3621SOL     OW10889   4.075   1.801   2.715
 3621SOL    HW110890   4.125   1.715   2.721
 3621SOL    HW210891   4.140   1.878   2.712
 3622SOL     OW10892   4.951   1.550   3.368
 3622SOL    HW110893   4.957   1.473   3.432
 3622SOL    HW210894   4.899   1.524   3.288
 3623SOL     OW10895   4.045   0.943   2.104
 3623SOL    HW110896   4.127   0.982   2.062
 3623SOL    HW210897   4.018   0.861   2.055
 3624SOL     OW10898   4.185   1.266   3.589
 3624SOL    HW110899   4.135   1.267   3.503
 3624SOL    HW210900   4.122   1.248   3.665
 3625SOL     OW10901   4.835   1.776   2.099
 3625SOL    HW110902   4.775   1.714   2.149
 3625SOL    HW210903   4.866   1.732   2.014
 3626SOL     OW10904   3.926   0.285   3.360
 3626SOL    HW110905   3.846   0.345   3.347
 3626SOL    HW210906   3.916   0.236   3.446
 3627SOL     OW10907   4.188   1.743   2.185
 3627SOL    HW110908   4.221   1.782   2.271
 3627SOL    HW210909   4.264   1.736   2.120
 3628SOL     OW10910   5.124   0.107   2.288
 3628SOL    HW110911   5.100   0.070   2.198
 3628SOL    HW210912   5.223   0.123   2.292
 3629SOL     OW10913   3.973   1.785   3.103
 3629SOL    HW110914   4.030   1.720   3.153
 3629SOL    HW210915   3.957   1.752   3.010
 3630SOL     OW10916   4.664   1.698   2.766
 3630SOL    HW110917   4.744   1.641   2.787
 3630SOL    HW210918   4.615   1.658   2.689
 3631SOL     OW10919   4.106   0.700   2.342
 3631SOL    HW110920   4.151   0.610   2.339
 3631SOL    HW210921   4.012   0.689   2.375
 3632SOL     OW10922   4.338   0.122   1.979
 3632SOL    HW110923   4.436   0.100   1.986
 3632SOL    HW210924   4.307   0.105   1.886
 3633SOL     OW10925   4.505   0.264   3.611
 3633SOL    HW110926   4.572   0.203   3.654
 3633SOL    HW210927   4.432   0.283   3.676
 3634SOL     OW10928   4.612   1.514   3.057
 3634SOL    HW110929   4.589   1.489   2.963
 3634SOL    HW210930   4.673   1.445   3.096
 3635SOL     OW10931   5.075   0.590   3.295
 3635SOL    HW110932   5.103   0.547   3.380
 3635SOL    HW210933   5.100   0.686   3.296
 3636SOL     OW10934   4.527   1.402   2.786
 3636SOL    HW110935   4.617   1.416   2.744
 3636SOL    HW210936   4.456   1.404   2.715
 3637SOL     OW10937   4.646   0.503   2.761
 3637SOL    HW110938   4.621   0.494   2.665
 3637SOL    HW210939   4.694   0.421   2.792
 3638SOL     OW10940   4.263   0.064   2.374
 3638SOL    HW110941   4.182   0.065   2.432
 3638SOL    HW210942   4.266   0.147   2.319
 3639SOL     OW10943   5.158   1.188   1.903
 3639SOL    HW110944   5.190   1.112   1.960
 3639SOL    HW210945   5.066   1.215   1.933
 3640SOL     OW10946   4.021   0.035   2.033
 3640SOL    HW110947   4.070   0.119   2.012
 3640SOL    HW210948   4.083  -0.030   2.078
 3641SOL     OW10949   4.659   0.236   2.342
 3641SOL    HW110950   4.611   0.277   2.264
 3641SOL    HW210951   4.758   0.234   2.323
 3642SOL     OW10952   4.800   0.683   3.326
 3642SOL    HW110953   4.720   0.622   3.329
 3642SOL    HW210954   4.881   0.630   3.302
 3643SOL     OW10955   4.951   1.570   2.655
 3643SOL    HW110956   4.972   1.644   2.590
 3643SOL    HW210957   5.019   1.570   2.728
 3644SOL     OW10958   4.183   1.152   2.603
 3644SOL    HW110959   4.112   1.125   2.668
 3644SOL    HW210960   4.157   1.124   2.510
 3645SOL     OW10961   4.995   1.797   2.453
 3645SOL    HW110962   5.039   1.861   2.389
 3645SOL    HW210963   4.945   1.849   2.523
 3646SOL     OW10964   4.756   0.549   1.878
 3646SOL    HW110965   4.715   0.631   1.839
 3646SOL    HW210966   4.820   0.575   1.951
 3647SOL     OW10967   3.802   0.556   3.248
 3647SOL    HW110968   3.894   0.555   3.207
 3647SOL    HW210969   3.796   0.630   3.315
 3648SOL     OW10970   4.285   0.222   3.009
 3648SOL    HW110971   4.323   0.138   3.046
 3648SOL    HW210972   4.197   0.241   3.053
 3649SOL     OW10973   4.590   0.454   2.504
 3649SOL    HW110974   4.558   0.526   2.442
 3649SOL    HW210975   4.614   0.373   2.451
 3650SOL     OW10976   4.741   0.039   2.615
 3650SOL    HW110977   4.669   0.044   2.546
 3650SOL    HW210978   4.717  -0.030   2.684
 3651SOL     OW10979   5.153   1.173   2.729
 3651SOL    HW110980   5.098   1.089   2.722
 3651SOL    HW210981   5.179   1.202   2.637
 3652SOL     OW10982   4.212   1.385   2.036
 3652SOL    HW110983   4.125   1.370   2.083
 3652SOL    HW210984   4.195   1.411   1.941
 3653SOL     OW10985   5.114   0.575   1.940
 3653SOL    HW110986   5.060   0.554   2.021
 3653SOL    HW210987   5.205   0.534   1.949
 3654SOL     OW10988   4.251   0.256   2.190
 3654SOL    HW110989   4.278   0.197   2.115
 3654SOL    HW210990   4.251   0.351   2.159
 3655SOL     OW10991   4.788   1.347   3.202
 3655SOL    HW110992   4.708   1.324   3.257
 3655SOL    HW210993   4.871   1.321   3.251
 3656SOL     OW10994   5.316   1.629   3.487
 3656SOL    HW110995   5.343   1.663   3.397
 3656SOL    HW210996   5.395   1.591   3.533
 3657SOL     OW10997   4.835   1.195   2.962
 3657SOL    HW110998   4.795   1.239   3.043
 3657SOL    HW210999   4.794   1.232   2.879
 3658SOL     OW11000   4.639   0.089   3.264
 3658SOL    HW111001   4.664   0.069   3.169
 3658SOL    HW211002   4.711   0.145   3.306
 3659SOL     OW11003   4.704   1.116   3.581
 3659SOL    HW111004   4.605   1.122   3.591
 3659SOL    HW211005   4.727   1.036   3.525
 3660SOL     OW11006   4.429   1.050   2.230
 3660SOL    HW111007   4.415   1.057   2.329
 3660SOL    HW211008   4.513   0.999   2.212
 3661SOL     OW11009   4.134   0.813   3.113
 3661SOL    HW111010   4.220   0.825   3.163
 3661SOL    HW211011   4.092   0.726   3.140
 3662SOL     OW11012   4.998   0.386   3.124
 3662SOL    HW111013   5.019   0.460   3.188
 3662SOL    HW211014   4.909   0.403   3.081
 3663SOL     OW11015   3.788   1.564   3.193
 3663SOL    HW111016   3.742   1.646   3.159
 3663SOL    HW211017   3.886   1.583   3.202
 3664SOL     OW11018   4.091   1.100   2.363
 3664SOL    HW111019   4.084   1.183   2.307
 3664SOL    HW211020   4.095   1.020   2.303
 3665SOL     OW11021   4.290   0.537   2.727
 3665SOL    HW111022   4.302   0.603   2.653
 3665SOL    HW211023   4.336   0.571   2.810
 3666SOL     OW11024   4.976   1.348   2.250
 3666SOL    HW111025   5.026   1.425   2.290
 3666SOL    HW211026   4.881   1.350   2.282
 3667SOL     OW11027   4.996   1.445   3.004
 3667SOL    HW111028   5.043   1.458   3.091
 3667SOL    HW211029   4.930   1.371   3.013
 3668SOL     OW11030   4.078   1.510   3.191
 3668SOL    HW111031   4.057   1.466   3.104
 3668SOL    HW211032   4.175   1.536   3.194
 3669SOL     OW11033   4.126   0.751   3.460
 3669SOL    HW111034   4.194   0.806   3.413
 3669SOL    HW211035   4.166   0.663   3.487
 3670SOL     OW11036   4.737   0.105   3.632
 3670SOL    HW111037   4.743   0.190   3.580
 3670SOL    HW211038   4.769   0.029   3.575
 3671SOL     OW11039   4.228   0.050   3.602
 3671SOL    HW111040   4.186  -0.007   3.532
 3671SOL    HW211041   4.162   0.119   3.634
 3672SOL     OW11042   4.297   0.870   2.891
 3672SOL    HW111043   4.341   0.959   2.882
 3672SOL    HW211044   4.234   0.870   2.968
 3673SOL     OW11045   5.084   0.862   2.907
 3673SOL    HW111046   5.009   0.862   2.841
 3673SOL    HW211047   5.121   0.770   2.916
 3674SOL     OW11048   4.933   0.525   2.137
 3674SOL    HW111049   4.946   0.441   2.191
 3674SOL    HW211050   4.904   0.599   2.197
 3675SOL     OW11051   4.031   0.213   3.093
 3675SOL    HW111052   4.008   0.250   3.183
 3675SOL    HW211053   4.001   0.118   3.087
 3676SOL     OW11054   3.761   1.310   3.144
 3676SOL    HW111055   3.814   1.261   3.212
 3676SOL    HW211056   3.783   1.408   3.149
 3677SOL     OW11057   4.456   0.634   2.926
 3677SOL    HW111058   4.515   0.608   2.850
 3677SOL    HW211059   4.428   0.730   2.915
 3678SOL     OW11060   4.031   0.063   2.480
 3678SOL    HW111061   4.020   0.157   2.513
 3678SOL    HW211062   4.026   0.000   2.557
 3679SOL     OW11063   5.346   0.367   2.236
 3679SOL    HW111064   5.348   0.291   2.300
 3679SOL    HW211065   5.298   0.444   2.276
 3680SOL     OW11066   4.747   0.766   2.828
 3680SOL    HW111067   4.762   0.787   2.924
 3680SOL    HW211068   4.717   0.671   2.819
 3681SOL     OW11069   4.704   1.573   3.562
 3681SOL    HW111070   4.684   1.617   3.474
 3681SOL    HW211071   4.743   1.482   3.546
 3682SOL     OW11072   4.074   0.898   3.666
 3682SOL    HW111073   4.150   0.942   3.714
 3682SOL    HW211074   4.109   0.851   3.584
 3683SOL     OW11075   5.027   0.838   1.904
 3683SOL    HW111076   5.061   0.745   1.919
 3683SOL    HW211077   5.045   0.865   1.809
 3684SOL     OW11078   4.792   1.333   2.711
 3684SOL    HW111079   4.799   1.249   2.656
 3684SOL    HW211080   4.854   1.402   2.675
 3685SOL     OW11081   4.043   0.810   2.811
 3685SOL    HW111082   4.136   0.846   2.816
 3685SOL    HW211083   4.037   0.725   2.863
 3686SOL     OW11084   4.063   0.509   2.868
 3686SOL    HW111085   4.011   0.426   2.851
 3686SOL    HW211086   4.140   0.514   2.804
 3687SOL     OW11087   4.862   0.380   3.540
 3687SOL    HW111088   4.817   0.443   3.604
 3687SOL    HW211089   4.955   0.411   3.523
 3688SOL     OW11090   4.884   0.207   3.339
 3688SOL    HW111091   4.884   0.271   3.416
 3688SOL    HW211092   4.912   0.255   3.256
 3689SOL     OW11093   3.732   1.326   2.062
 3689SOL    HW111094   3.639   1.347   2.031
 3689SOL    HW211095   3.742   1.227   2.075
 3690SOL     OW11096   3.812   1.801   2.789
 3690SOL    HW111097   3.770   1.715   2.762
 3690SOL    HW211098   3.906   1.804   2.755
 3691SOL     OW11099   4.228   1.568   2.772
 3691SOL    HW111100   4.294   1.642   2.781
 3691SOL    HW211101   4.272   1.489   2.730
 3692SOL     OW11102   4.726   0.796   3.100
 3692SOL    HW111103   4.767   0.764   3.186
 3692SOL    HW211104   4.630   0.769   3.097
 3693SOL     OW11105   3.764   0.544   2.976
 3693SOL    HW111106   3.849   0.511   2.935
 3693SOL    HW211107   3.777   0.559   3.074
 3694SOL     OW11108   3.913   0.520   3.584
 3694SOL    HW111109   3.972   0.480   3.514
 3694SOL    HW211110   3.855   0.591   3.543
 3695SOL     OW11111   5.093   0.950   3.522
 3695SOL    HW111112   5.132   1.039   3.542
 3695SOL    HW211113   5.103   0.930   3.425
 3696SOL     OW11114   4.539   0.572   2.187
 3696SOL    HW111115   4.546   0.483   2.141
 3696SOL    HW211116   4.445   0.606   2.179
 3697SOL     OW11117   3.976   1.564   3.606
 3697SOL    HW111118   3.946   1.621   3.682
 3697SOL    HW211119   3.969   1.467   3.632
 3698SOL     OW11120   4.395   0.464   3.131
 3698SOL    HW111121   4.361   0.375   3.101
 3698SOL    HW211122   4.421   0.518   3.051
 3699SOL     OW11123   4.654   1.678   3.327
 3699SOL    HW111124   4.630   1.660   3.232
 3699SOL    HW211125   4.684   1.772   3.337
 3700SOL     OW11126   4.197   0.500   2.053
 3700SOL    HW111127   4.258   0.580   2.057
 3700SOL    HW211128   4.102   0.531   2.060
 3701SOL     OW11129   3.883   1.137   3.328
 3701SOL    HW111130   3.905   1.076   3.404
 3701SOL    HW211131   3.893   1.088   3.242
 3702SOL     OW11132   5.071   1.059   3.096
 3702SOL    HW111133   5.095   0.996   3.022
 3702SOL    HW211134   4.981   1.099   3.078
 3703SOL     OW11135   5.026   0.855   2.171
 3703SOL    HW111136   4.940   0.824   2.213
 3703SOL    HW211137   5.022   0.841   2.072
 3704SOL     OW11138   4.976   1.731   2.990
 3704SOL    HW111139   5.060   1.736   2.936
 3704SOL    HW211140   4.953   1.635   3.008
 3705SOL     OW11141   3.807   1.258   2.884
 3705SOL    HW111142   3.802   1.257   2.984
 3705SOL    HW211143   3.724   1.217   2.846
 3706SOL     OW11144   4.412   1.662   3.578
 3706SOL    HW111145   4.356   1.743   3.587
 3706SOL    HW211146   4.464   1.666   3.492
 3707SOL     OW11147   5.112   1.573   2.339
 3707SOL    HW111148   5.179   1.585   2.265
 3707SOL    HW211149   5.072   1.662   2.362
 3708SOL     OW11150   3.854   1.794   3.713
 3708SOL    HW111151   3.813   1.720   3.766
 3708SOL    HW211152   3.918   1.845   3.771
 3709SOL     OW11153   5.004   0.927   2.534
 3709SOL    HW111154   5.064   0.846   2.536
 3709SOL    HW211155   5.044   0.996   2.474
 3710SOL     OW11156   4.554   1.273   3.284
 3710SOL    HW111157   4.549   1.306   3.379
 3710SOL    HW211158   4.468   1.292   3.238
 3711SOL     OW11159   4.396   1.616   2.016
 3711SOL    HW111160   4.405   1.626   1.917
 3711SOL    HW211161   4.356   1.527   2.037
 3712SOL     OW11162   3.987   0.326   2.582
 3712SOL    HW111163   3.908   0.377   2.548
 3712SOL    HW211164   3.978   0.311   2.680
 3713SOL     OW11165   4.918   1.612   1.893
 3713SOL    HW111166   4.924   1.519   1.930
 3713SOL    HW211167   4.859   1.612   1.813
 3714SOL     OW11168   4.546   1.002   3.234
 3714SOL    HW111169   4.586   1.001   3.142
 3714SOL    HW211170   4.556   1.094   3.274
 3715SOL     OW11171   4.640   0.910   2.153
 3715SOL    HW111172   4.703   0.948   2.085
 3715SOL    HW211173   4.680   0.827   2.192
 3716SOL     OW11174   4.096   1.288   3.352
 3716SOL    HW111175   4.083   1.381   3.318
 3716SOL    HW211176   4.012   1.236   3.339
 3717SOL     OW11177   4.763   1.098   2.558
 3717SOL    HW111178   4.693   1.051   2.612
 3717SOL    HW211179   4.822   1.030   2.515
 3718SOL     OW11180   4.738   0.236   2.833
 3718SOL    HW111181   4.730   0.200   2.740
 3718SOL    HW211182   4.736   0.160   2.898
 3719SOL     OW11183   4.314   1.487   2.353
 3719SOL    HW111184   4.356   1.429   2.283
 3719SOL    HW211185   4.270   1.566   2.309
 3720SOL     OW11186   3.979   1.348   2.152
 3720SOL    HW111187   3.883   1.349   2.125
 3720SOL    HW211188   3.991   1.401   2.236
 3721SOL     OW11189   3.829   1.013   3.588
 3721SOL    HW111190   3.752   0.980   3.642
 3721SOL    HW211191   3.914   0.983   3.630
 3722SOL     OW11192   4.396   0.203   3.351
 3722SOL    HW111193   4.486   0.187   3.311
 3722SOL    HW211194   4.404   0.208   3.450
 3723SOL     OW11195   3.799   0.345   1.895
 3723SOL    HW111196   3.707   0.317   1.866
 3723SOL    HW211197   3.830   0.422   1.839
 3724SOL     OW11198   5.164   0.856   3.260
 3724SOL    HW111199   5.107   0.908   3.197
 3724SOL    HW211200   5.260   0.868   3.236
 3725SOL     OW11201   3.796   0.166   2.180
 3725SOL    HW111202   3.779   0.249   2.126
 3725SOL    HW211203   3.886   0.129   2.158
 3726SOL     OW11204   4.907   1.335   1.981
 3726SOL    HW111205   4.808   1.324   1.983
 3726SOL    HW211206   4.941   1.350   2.074
 3727SOL     OW11207   4.337   0.842   3.293
 3727SOL    HW111208   4.393   0.923   3.276
 3727SOL    HW211209   4.396   0.762   3.296
 3728SOL     OW11210   4.440   0.565   3.570
 3728SOL    HW111211   4.459   0.630   3.644
 3728SOL    HW211212   4.500   0.485   3.579
 3729SOL     OW11213   5.174   1.220   3.495
 3729SOL    HW111214   5.165   1.210   3.594
 3729SOL    HW211215   5.270   1.213   3.469
 3730SOL     OW11216   4.114   1.741   3.422
 3730SOL    HW111217   4.023   1.782   3.420
 3730SOL    HW211218   4.107   1.647   3.454
 3731SOL     OW11219   4.949   0.325   2.311
 3731SOL    HW111220   5.014   0.251   2.300
 3731SOL    HW211221   4.969   0.375   2.395
 3732SOL     OW11222   4.318   0.745   2.514
 3732SOL    HW111223   4.368   0.830   2.495
 3732SOL    HW211224   4.230   0.747   2.466
 3733SOL     OW11225   4.583   1.374   1.878
 3733SOL    HW111226   4.537   1.389   1.966
 3733SOL    HW211227   4.627   1.459   1.848
 3734SOL     OW11228   4.385   1.790   2.815
 3734SOL    HW111229   4.339   1.878   2.802
 3734SOL    HW211230   4.484   1.802   2.808
 3735SOL     OW11231   4.583   0.956   2.723
 3735SOL    HW111232   4.637   0.887   2.771
 3735SOL    HW211233   4.551   1.025   2.789
 3736SOL     OW11234   4.807   0.984   1.949
 3736SOL    HW111235   4.784   1.037   1.867
 3736SOL    HW211236   4.888   0.928   1.930
 3737SOL     OW11237   3.945   1.314   3.706
 3737SOL    HW111238   3.880   1.241   3.685
 3737SOL    HW211239   3.949   1.328   3.804
 3738SOL     OW11240   3.803   1.240   2.515
 3738SOL    HW111241   3.802   1.193   2.603
 3738SOL    HW211242   3.885   1.212   2.464
 3739SOL     OW11243   4.396   1.391   3.486
 3739SOL    HW111244   4.318   1.341   3.524
 3739SOL    HW211245   4.393   1.486   3.517
 3740SOL     OW11246   4.152   0.424   2.382
 3740SOL    HW111247   4.182   0.352   2.320
 3740SOL    HW211248   4.113   0.384   2.465
 3741SOL     OW11249   5.429   1.487   2.966
 3741SOL    HW111250   5.336   1.462   2.939
 3741SOL    HW211251   5.455   1.437   3.048
 3742SOL     OW11252   4.041   0.547   3.142
 3742SOL    HW111253   4.079   0.488   3.214
 3742SOL    HW211254   4.081   0.521   3.054
 3743SOL     OW11255   4.536   1.586   2.549
 3743SOL    HW111256   4.568   1.596   2.455
 3743SOL    HW211257   4.457   1.524   2.551
 3744SOL     OW11258   5.148   0.214   2.974
 3744SOL    HW111259   5.200   0.149   3.029
 3744SOL    HW211260   5.099   0.277   3.035
 3745SOL     OW11261   4.725   0.034   3.016
 3745SOL    HW111262   4.662  -0.038   2.985
 3745SOL    HW211263   4.818  -0.002   3.016
 3746SOL     OW11264   4.494   1.330   2.163
 3746SOL    HW111265   4.448   1.243   2.180
 3746SOL    HW211266   4.585   1.327   2.204
 3747SOL     OW11267   4.342   1.567   3.146
 3747SOL    HW111268   4.337   1.649   3.203
 3747SOL    HW211269   4.431   1.564   3.101
 3748SOL     OW11270   5.076   0.052   2.030
 3748SOL    HW111271   5.111   0.011   1.946
 3748SOL    HW211272   4.986   0.014   2.050
 3749SOL     OW11273   5.024   0.453   2.553
 3749SOL    HW111274   4.965   0.533   2.557
 3749SOL    HW211275   5.039   0.418   2.646
 3750SOL     OW11276   3.763   1.077   2.162
 3750SOL    HW111277   3.862   1.066   2.153
 3750SOL    HW211278   3.723   0.991   2.194
 3751SOL     OW11279   4.599   1.646   2.199
 3751SOL    HW111280   4.522   1.611   2.145
 3751SOL    HW211281   4.567   1.717   2.261
 3752SOL     OW11282   3.954   0.628   3.837
 3752SOL    HW111283   3.861   0.626   3.874
 3752SOL    HW211284   3.955   0.589   3.745
 3753SOL     OW11285   3.949   0.275   4.720
 3753SOL    HW111286   3.984   0.258   4.812
 3753SOL    HW211287   3.861   0.230   4.708
 3754SOL     OW11288   3.743   0.368   4.371
 3754SOL    HW111289   3.661   0.411   4.410
 3754SOL    HW211290   3.715   0.295   4.308
 3755SOL     OW11291   4.293   1.275   4.889
 3755SOL    HW111292   4.200   1.268   4.852
 3755SOL    HW211293   4.304   1.364   4.933
 3756SOL     OW11294   5.279   1.511   4.427
 3756SOL    HW111295   5.222   1.495   4.508
 3756SOL    HW211296   5.220   1.521   4.347
 3757SOL     OW11297   4.859   0.703   4.441
 3757SOL    HW111298   4.916   0.781   4.416
 3757SOL    HW211299   4.799   0.729   4.517
 3758SOL     OW11300   4.492   1.144   4.747
 3758SOL    HW111301   4.414   1.161   4.807
 3758SOL    HW211302   4.526   1.231   4.711
 3759SOL     OW11303   4.409   1.012   4.389
 3759SOL    HW111304   4.478   0.996   4.459
 3759SOL    HW211305   4.336   1.069   4.427
 3760SOL     OW11306   4.059   1.435   4.785
 3760SOL    HW111307   3.981   1.404   4.732
 3760SOL    HW211308   4.117   1.493   4.728
 3761SOL     OW11309   4.162   0.392   5.223
 3761SOL    HW111310   4.244   0.336   5.232
 3761SOL    HW211311   4.081   0.334   5.227
 3762SOL     OW11312   3.955   1.713   4.207
 3762SOL    HW111313   3.989   1.790   4.261
 3762SOL    HW211314   3.999   1.713   4.117
 3763SOL     OW11315   3.954   1.434   4.262
 3763SOL    HW111316   3.928   1.530   4.262
 3763SOL    HW211317   3.883   1.380   4.307
 3764SOL     OW11318   3.964   1.091   4.610
 3764SOL    HW111319   3.978   1.007   4.662
 3764SOL    HW211320   3.909   1.155   4.665
 3765SOL     OW11321   4.344   1.786   5.163
 3765SOL    HW111322   4.252   1.769   5.198
 3765SOL    HW211323   4.372   1.878   5.189
 3766SOL     OW11324   4.330   0.964   3.847
 3766SOL    HW111325   4.337   1.048   3.793
 3766SOL    HW211326   4.376   0.977   3.935
 3767SOL     OW11327   5.318   0.114   5.204
 3767SOL    HW111328   5.300   0.181   5.132
 3767SOL    HW211329   5.315   0.160   5.293
 3768SOL     OW11330   3.846   0.643   4.287
 3768SOL    HW111331   3.801   0.555   4.304
 3768SOL    HW211332   3.845   0.697   4.371
 3769SOL     OW11333   3.751   1.596   3.841
 3769SOL    HW111334   3.732   1.500   3.862
 3769SOL    HW211335   3.718   1.654   3.916
 3770SOL     OW11336   5.413   0.922   4.336
 3770SOL    HW111337   5.508   0.893   4.344
 3770SOL    HW211338   5.405   0.987   4.261
 3771SOL     OW11339   4.337   1.365   4.450
 3771SOL    HW111340   4.288   1.278   4.459
 3771SOL    HW211341   4.314   1.408   4.363
 3772SOL     OW11342   4.533   0.004   4.226
 3772SOL    HW111343   4.573   0.095   4.217
 3772SOL    HW211344   4.433   0.012   4.232
 3773SOL     OW11345   3.921   0.976   4.988
 3773SOL    HW111346   4.010   0.931   4.974
 3773SOL    HW211347   3.848   0.911   4.969
 3774SOL     OW11348   4.041   0.251   5.525
 3774SOL    HW111349   4.112   0.322   5.531
 3774SOL    HW211350   3.953   0.290   5.553
 3775SOL     OW11351   5.190   1.417   4.677
 3775SOL    HW111352   5.131   1.423   4.757
 3775SOL    HW211353   5.175   1.329   4.631
 3776SOL     OW11354   4.322   0.729   3.994
 3776SOL    HW111355   4.346   0.798   3.926
 3776SOL    HW211356   4.244   0.762   4.048
 3777SOL     OW11357   5.005   0.345   4.668
 3777SOL    HW111358   4.919   0.295   4.655
 3777SOL    HW211359   5.067   0.291   4.724
 3778SOL     OW11360   4.531   0.605   5.189
 3778SOL    HW111361   4.484   0.602   5.278
 3778SOL    HW211362   4.480   0.550   5.123
 3779SOL     OW11363   4.715   0.410   4.966
 3779SOL    HW111364   4.638   0.444   5.020
 3779SOL    HW211365   4.681   0.359   4.887
 3780SOL     OW11366   4.765   0.701   4.153
 3780SOL    HW111367   4.791   0.697   4.249
 3780SOL    HW211368   4.680   0.650   4.139
 3781SOL     OW11369   3.800   0.811   4.513
 3781SOL    HW111370   3.899   0.799   4.522
 3781SOL    HW211371   3.776   0.906   4.534
 3782SOL     OW11372   3.854   1.821   5.295
 3782SOL    HW111373   3.844   1.806   5.394
 3782SOL    HW211374   3.768   1.857   5.259
 3783SOL     OW11375   4.589   0.348   3.919
 3783SOL    HW111376   4.648   0.411   3.870
 3783SOL    HW211377   4.608   0.254   3.890
 3784SOL     OW11378   5.086   1.144   4.269
 3784SOL    HW111379   5.169   1.115   4.221
 3784SOL    HW211380   5.037   1.211   4.213
 3785SOL     OW11381   4.274   0.196   4.609
 3785SOL    HW111382   4.269   0.191   4.709
 3785SOL    HW211383   4.276   0.292   4.580
 3786SOL     OW11384   4.732   1.456   4.201
 3786SOL    HW111385   4.686   1.528   4.149
 3786SOL    HW211386   4.728   1.476   4.299
 3787SOL     OW11387   4.075   1.801   4.577
 3787SOL    HW111388   4.125   1.715   4.583
 3787SOL    HW211389   4.140   1.878   4.574
 3788SOL     OW11390   4.045   0.943   3.966
 3788SOL    HW111391   4.127   0.982   3.924
 3788SOL    HW211392   4.018   0.861   3.917
 3789SOL     OW11393   4.835   1.776   3.961
 3789SOL    HW111394   4.775   1.714   4.011
 3789SOL    HW211395   4.866   1.732   3.876
 3790SOL     OW11396   3.926   0.285   5.222
 3790SOL    HW111397   3.846   0.345   5.209
 3790SOL    HW211398   3.916   0.236   5.308
 3791SOL     OW11399   4.188   1.743   4.047
 3791SOL    HW111400   4.221   1.782   4.133
 3791SOL    HW211401   4.264   1.736   3.982
 3792SOL     OW11402   5.124   0.107   4.150
 3792SOL    HW111403   5.100   0.070   4.060
 3792SOL    HW211404   5.223   0.123   4.154
 3793SOL     OW11405   3.973   1.785   4.965
 3793SOL    HW111406   4.030   1.720   5.015
 3793SOL    HW211407   3.957   1.752   4.872
 3794SOL     OW11408   4.664   1.698   4.628
 3794SOL    HW111409   4.744   1.641   4.649
 3794SOL    HW211410   4.615   1.658   4.551
 3795SOL     OW11411   4.106   0.700   4.204
 3795SOL    HW111412   4.151   0.610   4.201
 3795SOL    HW211413   4.012   0.689   4.237
 3796SOL     OW11414   4.338   0.122   3.841
 3796SOL    HW111415   4.436   0.100   3.848
 3796SOL    HW211416   4.307   0.105   3.748
 3797SOL     OW11417   4.612   1.514   4.919
 3797SOL    HW111418   4.589   1.489   4.825
 3797SOL    HW211419   4.673   1.445   4.958
 3798SOL     OW11420   4.527   1.402   4.648
 3798SOL    HW111421   4.617   1.416   4.606
 3798SOL    HW211422   4.456   1.404   4.577
 3799SOL     OW11423   4.646   0.503   4.623
 3799SOL    HW111424   4.621   0.494   4.527
 3799SOL    HW211425   4.694   0.421   4.654
 3800SOL     OW11426   4.263   0.064   4.236
 3800SOL    HW111427   4.182   0.065   4.294
 3800SOL    HW211428   4.266   0.147   4.181
 3801SOL     OW11429   5.158   1.188   3.765
 3801SOL    HW111430   5.190   1.112   3.822
 3801SOL    HW211431   5.066   1.215   3.795
 3802SOL     OW11432   4.021   0.035   3.895
 3802SOL    HW111433   4.070   0.119   3.874
 3802SOL    HW211434   4.083  -0.030   3.940
 3803SOL     OW11435   4.659   0.236   4.204
 3803SOL    HW111436   4.611   0.277   4.126
 3803SOL    HW211437   4.758   0.234   4.185
 3804SOL     OW11438   4.951   1.570   4.517
 3804SOL    HW111439   4.972   1.644   4.452
 3804SOL    HW211440   5.019   1.570   4.590
 3805SOL     OW11441   4.183   1.152   4.465
 3805SOL    HW111442   4.112   1.125   4.530
 3805SOL    HW211443   4.157   1.124   4.372
 3806SOL     OW11444   4.995   1.797   4.315
 3806SOL    HW111445   5.039   1.861   4.251
 3806SOL    HW211446   4.945   1.849   4.385
 3807SOL     OW11447   4.756   0.549   3.740
 3807SOL    HW111448   4.715   0.631   3.701
 3807SOL    HW211449   4.820   0.575   3.813
 3808SOL     OW11450   3.802   0.556   5.110
 3808SOL    HW111451   3.894   0.555   5.069
 3808SOL    HW211452   3.796   0.630   5.177
 3809SOL     OW11453   4.285   0.222   4.871
 3809SOL    HW111454   4.323   0.138   4.908
 3809SOL    HW211455   4.197   0.241   4.915
 3810SOL     OW11456   4.590   0.454   4.366
 3810SOL    HW111457   4.558   0.526   4.304
 3810SOL    HW211458   4.614   0.373   4.313
 3811SOL     OW11459   4.741   0.039   4.477
 3811SOL    HW111460   4.669   0.044   4.408
 3811SOL    HW211461   4.717  -0.030   4.546
 3812SOL     OW11462   5.153   1.173   4.591
 3812SOL    HW111463   5.098   1.089   4.584
 3812SOL    HW211464   5.179   1.202   4.499
 3813SOL     OW11465   4.212   1.385   3.898
 3813SOL    HW111466   4.125   1.370   3.945
 3813SOL    HW211467   4.195   1.411   3.803
 3814SOL     OW11468   5.114   0.575   3.802
 3814SOL    HW111469   5.060   0.554   3.883
 3814SOL    HW211470   5.205   0.534   3.811
 3815SOL     OW11471   4.251   0.256   4.052
 3815SOL    HW111472   4.278   0.197   3.977
 3815SOL    HW211473   4.251   0.351   4.021
 3816SOL     OW11474   4.788   1.347   5.064
 3816SOL    HW111475   4.708   1.324   5.119
 3816SOL    HW211476   4.871   1.321   5.113
 3817SOL     OW11477   4.835   1.195   4.824
 3817SOL    HW111478   4.795   1.239   4.905
 3817SOL    HW211479   4.794   1.232   4.741
 3818SOL     OW11480   4.639   0.089   5.126
 3818SOL    HW111481   4.664   0.069   5.031
 3818SOL    HW211482   4.711   0.145   5.168
 3819SOL     OW11483   4.429   1.050   4.092
 3819SOL    HW111484   4.415   1.057   4.191
 3819SOL    HW211485   4.513   0.999   4.074
 3820SOL     OW11486   4.134   0.813   4.975
 3820SOL    HW111487   4.220   0.825   5.025
 3820SOL    HW211488   4.092   0.726   5.002
 3821SOL     OW11489   4.998   0.386   4.986
 3821SOL    HW111490   5.019   0.460   5.050
 3821SOL    HW211491   4.909   0.403   4.943
 3822SOL     OW11492   3.788   1.564   5.055
 3822SOL    HW111493   3.742   1.646   5.021
 3822SOL    HW211494   3.886   1.583   5.064
 3823SOL     OW11495   4.091   1.100   4.225
 3823SOL    HW111496   4.084   1.183   4.169
 3823SOL    HW211497   4.095   1.020   4.165
 3824SOL     OW11498   4.290   0.537   4.589
 3824SOL    HW111499   4.302   0.603   4.515
 3824SOL    HW211500   4.336   0.571   4.672
 3825SOL     OW11501   4.976   1.348   4.112
 3825SOL    HW111502   5.026   1.425   4.152
 3825SOL    HW211503   4.881   1.350   4.144
 3826SOL     OW11504   4.996   1.445   4.866
 3826SOL    HW111505   5.043   1.458   4.953
 3826SOL    HW211506   4.930   1.371   4.875
 3827SOL     OW11507   4.078   1.510   5.053
 3827SOL    HW111508   4.057   1.466   4.966
 3827SOL    HW211509   4.175   1.536   5.056
 3828SOL     OW11510   4.126   0.751   5.322
 3828SOL    HW111511   4.194   0.806   5.275
 3828SOL    HW211512   4.166   0.663   5.349
 3829SOL     OW11513   5.311   0.779   5.394
 3829SOL    HW111514   5.219   0.817   5.389
 3829SOL    HW211515   5.371   0.826   5.329
 3830SOL     OW11516   4.297   0.870   4.753
 3830SOL    HW111517   4.341   0.959   4.744
 3830SOL    HW211518   4.234   0.870   4.830
 3831SOL     OW11519   5.084   0.862   4.769
 3831SOL    HW111520   5.009   0.862   4.703
 3831SOL    HW211521   5.121   0.770   4.778
 3832SOL     OW11522   4.933   0.525   3.999
 3832SOL    HW111523   4.946   0.441   4.053
 3832SOL    HW211524   4.904   0.599   4.059
 3833SOL     OW11525   4.031   0.213   4.955
 3833SOL    HW111526   4.008   0.250   5.045
 3833SOL    HW211527   4.001   0.118   4.949
 3834SOL     OW11528   3.761   1.310   5.006
 3834SOL    HW111529   3.814   1.261   5.074
 3834SOL    HW211530   3.783   1.408   5.011
 3835SOL     OW11531   4.456   0.634   4.788
 3835SOL    HW111532   4.515   0.608   4.712
 3835SOL    HW211533   4.428   0.730   4.777
 3836SOL     OW11534   4.031   0.063   4.342
 3836SOL    HW111535   4.020   0.157   4.375
 3836SOL    HW211536   4.026   0.000   4.419
 3837SOL     OW11537   5.346   0.367   4.098
 3837SOL    HW111538   5.348   0.291   4.162
 3837SOL    HW211539   5.298   0.444   4.138
 3838SOL     OW11540   4.747   0.766   4.690
 3838SOL    HW111541   4.762   0.787   4.786
 3838SOL    HW211542   4.717   0.671   4.681
 3839SOL     OW11543   4.704   1.573   5.424
 3839SOL    HW111544   4.684   1.617   5.336
 3839SOL    HW211545   4.743   1.482   5.408
 3840SOL     OW11546   5.027   0.838   3.766
 3840SOL    HW111547   5.061   0.745   3.781
 3840SOL    HW211548   5.045   0.865   3.671
 3841SOL     OW11549   4.792   1.333   4.573
 3841SOL    HW111550   4.799   1.249   4.518
 3841SOL    HW211551   4.854   1.402   4.537
 3842SOL     OW11552   4.043   0.810   4.673
 3842SOL    HW111553   4.136   0.846   4.678
 3842SOL    HW211554   4.037   0.725   4.725
 3843SOL     OW11555   4.063   0.509   4.730
 3843SOL    HW111556   4.011   0.426   4.713
 3843SOL    HW211557   4.140   0.514   4.666
 3844SOL     OW11558   4.862   0.380   5.402
 3844SOL    HW111559   4.817   0.443   5.466
 3844SOL    HW211560   4.955   0.411   5.385
 3845SOL     OW11561   4.884   0.207   5.201
 3845SOL    HW111562   4.884   0.271   5.278
 3845SOL    HW211563   4.912   0.255   5.118
 3846SOL     OW11564   3.732   1.326   3.924
 3846SOL    HW111565   3.639   1.347   3.893
 3846SOL    HW211566   3.742   1.227   3.937
 3847SOL     OW11567   3.812   1.801   4.651
 3847SOL    HW111568   3.770   1.715   4.624
 3847SOL    HW211569   3.906   1.804   4.617
 3848SOL     OW11570   4.228   1.568   4.634
 3848SOL    HW111571   4.294   1.642   4.643
 3848SOL    HW211572   4.272   1.489   4.592
 3849SOL     OW11573   4.726   0.796   4.962
 3849SOL    HW111574   4.767   0.764   5.048
 3849SOL    HW211575   4.630   0.769   4.959
 3850SOL     OW11576   3.764   0.544   4.838
 3850SOL    HW111577   3.849   0.511   4.797
 3850SOL    HW211578   3.777   0.559   4.936
 3851SOL     OW11579   4.539   0.572   4.049
 3851SOL    HW111580   4.546   0.483   4.003
 3851SOL    HW211581   4.445   0.606   4.041
 3852SOL     OW11582   4.395   0.464   4.993
 3852SOL    HW111583   4.361   0.375   4.963
 3852SOL    HW211584   4.421   0.518   4.913
 3853SOL     OW11585   4.654   1.678   5.189
 3853SOL    HW111586   4.630   1.660   5.094
 3853SOL    HW211587   4.684   1.772   5.199
 3854SOL     OW11588   4.197   0.500   3.915
 3854SOL    HW111589   4.258   0.580   3.919
 3854SOL    HW211590   4.102   0.531   3.922
 3855SOL     OW11591   3.883   1.137   5.190
 3855SOL    HW111592   3.905   1.076   5.266
 3855SOL    HW211593   3.893   1.088   5.104
 3856SOL     OW11594   5.071   1.059   4.958
 3856SOL    HW111595   5.095   0.996   4.884
 3856SOL    HW211596   4.981   1.099   4.940
 3857SOL     OW11597   5.026   0.855   4.033
 3857SOL    HW111598   4.940   0.824   4.075
 3857SOL    HW211599   5.022   0.841   3.934
 3858SOL     OW11600   4.976   1.731   4.852
 3858SOL    HW111601   5.060   1.736   4.798
 3858SOL    HW211602   4.953   1.635   4.870
 3859SOL     OW11603   3.807   1.258   4.746
 3859SOL    HW111604   3.802   1.257   4.846
 3859SOL    HW211605   3.724   1.217   4.708
 3860SOL     OW11606   5.112   1.573   4.201
 3860SOL    HW111607   5.179   1.585   4.127
 3860SOL    HW211608   5.072   1.662   4.224
 3861SOL     OW11609   5.004   0.927   4.396
 3861SOL    HW111610   5.064   0.846   4.398
 3861SOL    HW211611   5.044   0.996   4.336
 3862SOL     OW11612   4.396   1.616   3.878
 3862SOL    HW111613   4.405   1.626   3.779
 3862SOL    HW211614   4.356   1.527   3.899
 3863SOL     OW11615   3.987   0.326   4.444
 3863SOL    HW111616   3.908   0.377   4.410
 3863SOL    HW211617   3.978   0.311   4.542
 3864SOL     OW11618   4.918   1.612   3.755
 3864SOL    HW111619   4.924   1.519   3.792
 3864SOL    HW211620   4.859   1.612   3.675
 3865SOL     OW11621   4.546   1.002   5.096
 3865SOL    HW111622   4.586   1.001   5.004
 3865SOL    HW211623   4.556   1.094   5.136
 3866SOL     OW11624   4.640   0.910   4.015
 3866SOL    HW111625   4.703   0.948   3.947
 3866SOL    HW211626   4.680   0.827   4.054
 3867SOL     OW11627   4.096   1.288   5.214
 3867SOL    HW111628   4.083   1.381   5.180
 3867SOL    HW211629   4.012   1.236   5.201
 3868SOL     OW11630   4.763   1.098   4.420
 3868SOL    HW111631   4.693   1.051   4.474
 3868SOL    HW211632   4.822   1.030   4.377
 3869SOL     OW11633   4.738   0.236   4.695
 3869SOL    HW111634   4.730   0.200   4.602
 3869SOL    HW211635   4.736   0.160   4.760
 3870SOL     OW11636   4.314   1.487   4.215
 3870SOL    HW111637   4.356   1.429   4.145
 3870SOL    HW211638   4.270   1.566   4.171
 3871SOL     OW11639   3.979   1.348   4.014
 3871SOL    HW111640   3.883   1.349   3.987
 3871SOL    HW211641   3.991   1.401   4.098
 3872SOL     OW11642   3.799   0.345   3.757
 3872SOL    HW111643   3.707   0.317   3.728
 3872SOL    HW211644   3.830   0.422   3.701
 3873SOL     OW11645   5.164   0.856   5.122
 3873SOL    HW111646   5.107   0.908   5.059
 3873SOL    HW211647   5.260   0.868   5.098
 3874SOL     OW11648   3.796   0.166   4.042
 3874SOL    HW111649   3.779   0.249   3.988
 3874SOL    HW211650   3.886   0.129   4.020
 3875SOL     OW11651   4.907   1.335   3.843
 3875SOL    HW111652   4.808   1.324   3.845
 3875SOL    HW211653   4.941   1.350   3.936
 3876SOL     OW11654   4.337   0.842   5.155
 3876SOL    HW111655   4.393   0.923   5.138
 3876SOL    HW211656   4.396   0.762   5.158
 3877SOL     OW11657   4.114   1.741   5.284
 3877SOL    HW111658   4.023   1.782   5.282
 3877SOL    HW211659   4.107   1.647   5.316
 3878SOL     OW11660   4.949   0.325   4.173
 3878SOL    HW111661   5.014   0.251   4.162
 3878SOL    HW211662   4.969   0.375   4.257
 3879SOL     OW11663   4.318   0.745   4.376
 3879SOL    HW111664   4.368   0.830   4.357
 3879SOL    HW211665   4.230   0.747   4.328
 3880SOL     OW11666   4.583   1.374   3.740
 3880SOL    HW111667   4.537   1.389   3.828
 3880SOL    HW211668   4.627   1.459   3.710
 3881SOL     OW11669   4.385   1.790   4.677
 3881SOL    HW111670   4.339   1.878   4.664
 3881SOL    HW211671   4.484   1.802   4.670
 3882SOL     OW11672   4.583   0.956   4.585
 3882SOL    HW111673   4.637   0.887   4.633
 3882SOL    HW211674   4.551   1.025   4.651
 3883SOL     OW11675   4.807   0.984   3.811
 3883SOL    HW111676   4.784   1.037   3.729
 3883SOL    HW211677   4.888   0.928   3.792
 3884SOL     OW11678   3.803   1.240   4.377
 3884SOL    HW111679   3.802   1.193   4.465
 3884SOL    HW211680   3.885   1.212   4.326
 3885SOL     OW11681   4.152   0.424   4.244
 3885SOL    HW111682   4.182   0.352   4.182
 3885SOL    HW211683   4.113   0.384   4.327
 3886SOL     OW11684   5.429   1.487   4.828
 3886SOL    HW111685   5.336   1.462   4.801
 3886SOL    HW211686   5.455   1.437   4.910
 3887SOL     OW11687   4.041   0.547   5.004
 3887SOL    HW111688   4.079   0.488   5.076
 3887SOL    HW211689   4.081   0.521   4.916
 3888SOL     OW11690   4.536   1.586   4.411
 3888SOL    HW111691   4.568   1.596   4.317
 3888SOL    HW211692   4.457   1.524   4.413
 3889SOL     OW11693   5.148   0.214   4.836
 3889SOL    HW111694   5.200   0.149   4.891
 3889SOL    HW211695   5.099   0.277   4.897
 3890SOL     OW11696   4.725   0.034   4.878
 3890SOL    HW111697   4.662  -0.038   4.847
 3890SOL    HW211698   4.818  -0.002   4.878
 3891SOL     OW11699   4.494   1.330   4.025
 3891SOL    HW111700   4.448   1.243   4.042
 3891SOL    HW211701   4.585   1.327   4.066
 3892SOL     OW11702   4.342   1.567   5.008
 3892SOL    HW111703   4.337   1.649   5.065
 3892SOL    HW211704   4.431   1.564   4.963
 3893SOL     OW11705   5.076   0.052   3.892
 3893SOL    HW111706   5.111   0.011   3.808
 3893SOL    HW211707   4.986   0.014   3.912
 3894SOL     OW11708   5.024   0.453   4.415
 3894SOL    HW111709   4.965   0.533   4.419
 3894SOL    HW211710   5.039   0.418   4.508
 3895SOL     OW11711   3.763   1.077   4.024
 3895SOL    HW111712   3.862   1.066   4.015
 3895SOL    HW211713   3.723   0.991   4.056
 3896SOL     OW11714   4.599   1.646   4.061
 3896SOL    HW111715   4.522   1.611   4.007
 3896SOL    HW211716   4.567   1.717   4.123
 3897SOL     OW11717   3.954   2.490   0.113
 3897SOL    HW111718   3.861   2.488   0.150
 3897SOL    HW211719   3.955   2.451   0.021
 3898SOL     OW11720   3.949   2.137   0.996
 3898SOL    HW111721   3.984   2.120   1.088
 3898SOL    HW211722   3.861   2.092   0.984
 3899SOL     OW11723   3.743   2.230   0.647
 3899SOL    HW111724   3.661   2.273   0.686
 3899SOL    HW211725   3.715   2.157   0.584
 3900SOL     OW11726   4.293   3.137   1.165
 3900SOL    HW111727   4.200   3.130   1.128
 3900SOL    HW211728   4.304   3.226   1.209
 3901SOL     OW11729   5.279   3.373   0.703
 3901SOL    HW111730   5.222   3.357   0.784
 3901SOL    HW211731   5.220   3.383   0.623
 3902SOL     OW11732   4.859   2.565   0.717
 3902SOL    HW111733   4.916   2.643   0.692
 3902SOL    HW211734   4.799   2.591   0.793
 3903SOL     OW11735   4.492   3.006   1.023
 3903SOL    HW111736   4.414   3.023   1.083
 3903SOL    HW211737   4.526   3.093   0.987
 3904SOL     OW11738   4.574   2.660   1.823
 3904SOL    HW111739   4.570   2.736   1.888
 3904SOL    HW211740   4.596   2.696   1.732
 3905SOL     OW11741   4.409   2.874   0.665
 3905SOL    HW111742   4.478   2.858   0.735
 3905SOL    HW211743   4.336   2.931   0.703
 3906SOL     OW11744   4.410   3.023   1.803
 3906SOL    HW111745   4.470   3.102   1.817
 3906SOL    HW211746   4.324   3.054   1.762
 3907SOL     OW11747   4.059   3.297   1.061
 3907SOL    HW111748   3.981   3.266   1.008
 3907SOL    HW211749   4.117   3.355   1.004
 3908SOL     OW11750   4.162   2.254   1.499
 3908SOL    HW111751   4.244   2.198   1.508
 3908SOL    HW211752   4.081   2.196   1.503
 3909SOL     OW11753   3.955   3.575   0.483
 3909SOL    HW111754   3.989   3.652   0.537
 3909SOL    HW211755   3.999   3.575   0.393
 3910SOL     OW11756   4.851   3.203   1.690
 3910SOL    HW111757   4.898   3.203   1.778
 3910SOL    HW211758   4.803   3.116   1.679
 3911SOL     OW11759   3.954   3.296   0.538
 3911SOL    HW111760   3.928   3.392   0.538
 3911SOL    HW211761   3.883   3.242   0.583
 3912SOL     OW11762   3.964   2.953   0.886
 3912SOL    HW111763   3.978   2.869   0.938
 3912SOL    HW211764   3.909   3.017   0.941
 3913SOL     OW11765   4.344   3.648   1.439
 3913SOL    HW111766   4.252   3.631   1.474
 3913SOL    HW211767   4.372   3.740   1.465
 3914SOL     OW11768   4.330   2.826   0.123
 3914SOL    HW111769   4.337   2.910   0.069
 3914SOL    HW211770   4.376   2.839   0.211
 3915SOL     OW11771   3.846   2.505   0.563
 3915SOL    HW111772   3.801   2.417   0.580
 3915SOL    HW211773   3.845   2.559   0.647
 3916SOL     OW11774   3.751   3.458   0.117
 3916SOL    HW111775   3.732   3.362   0.138
 3916SOL    HW211776   3.718   3.516   0.192
 3917SOL     OW11777   5.413   2.784   0.612
 3917SOL    HW111778   5.508   2.755   0.620
 3917SOL    HW211779   5.405   2.849   0.537
 3918SOL     OW11780   3.837   2.599   1.597
 3918SOL    HW111781   3.925   2.586   1.642
 3918SOL    HW211782   3.824   2.696   1.575
 3919SOL     OW11783   4.337   3.227   0.726
 3919SOL    HW111784   4.288   3.140   0.735
 3919SOL    HW211785   4.314   3.270   0.639
 3920SOL     OW11786   5.017   3.090   1.423
 3920SOL    HW111787   5.054   3.017   1.365
 3920SOL    HW211788   5.069   3.095   1.508
 3921SOL     OW11789   4.533   1.866   0.502
 3921SOL    HW111790   4.573   1.957   0.493
 3921SOL    HW211791   4.433   1.874   0.508
 3922SOL     OW11792   3.921   2.838   1.264
 3922SOL    HW111793   4.010   2.793   1.250
 3922SOL    HW211794   3.848   2.773   1.245
 3923SOL     OW11795   4.911   3.654   1.616
 3923SOL    HW111796   4.935   3.714   1.540
 3923SOL    HW211797   4.918   3.559   1.586
 3924SOL     OW11798   4.041   2.113   1.801
 3924SOL    HW111799   4.112   2.184   1.807
 3924SOL    HW211800   3.953   2.152   1.829
 3925SOL     OW11801   5.190   3.279   0.953
 3925SOL    HW111802   5.131   3.285   1.033
 3925SOL    HW211803   5.175   3.191   0.907
 3926SOL     OW11804   4.322   2.591   0.270
 3926SOL    HW111805   4.346   2.660   0.202
 3926SOL    HW211806   4.244   2.624   0.324
 3927SOL     OW11807   5.005   2.207   0.944
 3927SOL    HW111808   4.919   2.157   0.931
 3927SOL    HW211809   5.067   2.153   1.000
 3928SOL     OW11810   4.531   2.467   1.465
 3928SOL    HW111811   4.484   2.464   1.554
 3928SOL    HW211812   4.480   2.412   1.399
 3929SOL     OW11813   5.118   2.331   1.674
 3929SOL    HW111814   5.098   2.374   1.762
 3929SOL    HW211815   5.196   2.269   1.683
 3930SOL     OW11816   4.697   2.752   1.572
 3930SOL    HW111817   4.743   2.668   1.543
 3930SOL    HW211818   4.641   2.786   1.497
 3931SOL     OW11819   4.715   2.272   1.242
 3931SOL    HW111820   4.638   2.306   1.296
 3931SOL    HW211821   4.681   2.221   1.163
 3932SOL     OW11822   4.765   2.563   0.429
 3932SOL    HW111823   4.791   2.559   0.525
 3932SOL    HW211824   4.680   2.512   0.415
 3933SOL     OW11825   3.800   2.673   0.789
 3933SOL    HW111826   3.899   2.661   0.798
 3933SOL    HW211827   3.776   2.768   0.810
 3934SOL     OW11828   3.854   3.683   1.571
 3934SOL    HW111829   3.844   3.668   1.670
 3934SOL    HW211830   3.768   3.719   1.535
 3935SOL     OW11831   4.589   2.210   0.195
 3935SOL    HW111832   4.648   2.273   0.146
 3935SOL    HW211833   4.608   2.116   0.166
 3936SOL     OW11834   5.086   3.006   0.545
 3936SOL    HW111835   5.169   2.977   0.497
 3936SOL    HW211836   5.037   3.073   0.489
 3937SOL     OW11837   4.274   2.058   0.885
 3937SOL    HW111838   4.269   2.053   0.985
 3937SOL    HW211839   4.276   2.154   0.856
 3938SOL     OW11840   4.732   3.318   0.477
 3938SOL    HW111841   4.686   3.390   0.425
 3938SOL    HW211842   4.728   3.338   0.575
 3939SOL     OW11843   4.075   3.663   0.853
 3939SOL    HW111844   4.125   3.577   0.859
 3939SOL    HW211845   4.140   3.740   0.850
 3940SOL     OW11846   4.951   3.412   1.506
 3940SOL    HW111847   4.957   3.335   1.570
 3940SOL    HW211848   4.899   3.386   1.426
 3941SOL     OW11849   4.045   2.805   0.242
 3941SOL    HW111850   4.127   2.844   0.200
 3941SOL    HW211851   4.018   2.723   0.193
 3942SOL     OW11852   4.185   3.128   1.727
 3942SOL    HW111853   4.135   3.129   1.641
 3942SOL    HW211854   4.122   3.110   1.803
 3943SOL     OW11855   4.835   3.638   0.237
 3943SOL    HW111856   4.775   3.576   0.287
 3943SOL    HW211857   4.866   3.594   0.152
 3944SOL     OW11858   3.926   2.147   1.498
 3944SOL    HW111859   3.846   2.207   1.485
 3944SOL    HW211860   3.916   2.098   1.584
 3945SOL     OW11861   4.188   3.605   0.323
 3945SOL    HW111862   4.221   3.644   0.409
 3945SOL    HW211863   4.264   3.598   0.258
 3946SOL     OW11864   5.124   1.969   0.426
 3946SOL    HW111865   5.100   1.932   0.336
 3946SOL    HW211866   5.223   1.985   0.430
 3947SOL     OW11867   3.973   3.647   1.241
 3947SOL    HW111868   4.030   3.582   1.291
 3947SOL    HW211869   3.957   3.614   1.148
 3948SOL     OW11870   4.664   3.560   0.904
 3948SOL    HW111871   4.744   3.503   0.925
 3948SOL    HW211872   4.615   3.520   0.827
 3949SOL     OW11873   4.106   2.562   0.480
 3949SOL    HW111874   4.151   2.472   0.477
 3949SOL    HW211875   4.012   2.551   0.513
 3950SOL     OW11876   4.338   1.984   0.117
 3950SOL    HW111877   4.436   1.962   0.124
 3950SOL    HW211878   4.307   1.967   0.024
 3951SOL     OW11879   4.505   2.126   1.749
 3951SOL    HW111880   4.572   2.065   1.792
 3951SOL    HW211881   4.432   2.145   1.814
 3952SOL     OW11882   4.612   3.376   1.195
 3952SOL    HW111883   4.589   3.351   1.101
 3952SOL    HW211884   4.673   3.307   1.234
 3953SOL     OW11885   5.075   2.452   1.433
 3953SOL    HW111886   5.103   2.409   1.518
 3953SOL    HW211887   5.100   2.548   1.434
 3954SOL     OW11888   4.527   3.264   0.924
 3954SOL    HW111889   4.617   3.278   0.882
 3954SOL    HW211890   4.456   3.266   0.853
 3955SOL     OW11891   4.646   2.365   0.899
 3955SOL    HW111892   4.621   2.356   0.803
 3955SOL    HW211893   4.694   2.283   0.930
 3956SOL     OW11894   4.263   1.926   0.512
 3956SOL    HW111895   4.182   1.927   0.570
 3956SOL    HW211896   4.266   2.009   0.457
 3957SOL     OW11897   5.158   3.050   0.041
 3957SOL    HW111898   5.190   2.974   0.098
 3957SOL    HW211899   5.066   3.077   0.071
 3958SOL     OW11900   4.021   1.897   0.171
 3958SOL    HW111901   4.070   1.981   0.150
 3958SOL    HW211902   4.083   1.832   0.216
 3959SOL     OW11903   4.659   2.098   0.480
 3959SOL    HW111904   4.611   2.139   0.402
 3959SOL    HW211905   4.758   2.096   0.461
 3960SOL     OW11906   4.800   2.545   1.464
 3960SOL    HW111907   4.720   2.484   1.467
 3960SOL    HW211908   4.881   2.492   1.440
 3961SOL     OW11909   4.951   3.432   0.793
 3961SOL    HW111910   4.972   3.506   0.728
 3961SOL    HW211911   5.019   3.432   0.866
 3962SOL     OW11912   4.183   3.014   0.741
 3962SOL    HW111913   4.112   2.987   0.806
 3962SOL    HW211914   4.157   2.986   0.648
 3963SOL     OW11915   4.995   3.659   0.591
 3963SOL    HW111916   5.039   3.723   0.527
 3963SOL    HW211917   4.945   3.711   0.661
 3964SOL     OW11918   4.756   2.411   0.016
 3964SOL    HW111919   4.715   2.493  -0.023
 3964SOL    HW211920   4.820   2.437   0.089
 3965SOL     OW11921   3.802   2.418   1.386
 3965SOL    HW111922   3.894   2.417   1.345
 3965SOL    HW211923   3.796   2.492   1.453
 3966SOL     OW11924   4.285   2.084   1.147
 3966SOL    HW111925   4.323   2.000   1.184
 3966SOL    HW211926   4.197   2.103   1.191
 3967SOL     OW11927   4.590   2.316   0.642
 3967SOL    HW111928   4.558   2.388   0.580
 3967SOL    HW211929   4.614   2.235   0.589
 3968SOL     OW11930   4.741   1.901   0.753
 3968SOL    HW111931   4.669   1.906   0.684
 3968SOL    HW211932   4.717   1.832   0.822
 3969SOL     OW11933   5.153   3.035   0.867
 3969SOL    HW111934   5.098   2.951   0.860
 3969SOL    HW211935   5.179   3.064   0.775
 3970SOL     OW11936   4.212   3.247   0.174
 3970SOL    HW111937   4.125   3.232   0.221
 3970SOL    HW211938   4.195   3.273   0.079
 3971SOL     OW11939   5.114   2.437   0.078
 3971SOL    HW111940   5.060   2.416   0.159
 3971SOL    HW211941   5.205   2.396   0.087
 3972SOL     OW11942   4.251   2.118   0.328
 3972SOL    HW111943   4.278   2.059   0.253
 3972SOL    HW211944   4.251   2.213   0.297
 3973SOL     OW11945   4.788   3.209   1.340
 3973SOL    HW111946   4.708   3.186   1.395
 3973SOL    HW211947   4.871   3.183   1.389
 3974SOL     OW11948   5.316   3.491   1.625
 3974SOL    HW111949   5.343   3.525   1.535
 3974SOL    HW211950   5.395   3.453   1.671
 3975SOL     OW11951   4.835   3.057   1.100
 3975SOL    HW111952   4.795   3.101   1.181
 3975SOL    HW211953   4.794   3.094   1.017
 3976SOL     OW11954   4.639   1.951   1.402
 3976SOL    HW111955   4.664   1.931   1.307
 3976SOL    HW211956   4.711   2.007   1.444
 3977SOL     OW11957   4.704   2.978   1.719
 3977SOL    HW111958   4.605   2.984   1.729
 3977SOL    HW211959   4.727   2.898   1.663
 3978SOL     OW11960   4.429   2.912   0.368
 3978SOL    HW111961   4.415   2.919   0.467
 3978SOL    HW211962   4.513   2.861   0.350
 3979SOL     OW11963   4.134   2.675   1.251
 3979SOL    HW111964   4.220   2.687   1.301
 3979SOL    HW211965   4.092   2.588   1.278
 3980SOL     OW11966   4.998   2.248   1.262
 3980SOL    HW111967   5.019   2.322   1.326
 3980SOL    HW211968   4.909   2.265   1.219
 3981SOL     OW11969   3.788   3.426   1.331
 3981SOL    HW111970   3.742   3.508   1.297
 3981SOL    HW211971   3.886   3.445   1.340
 3982SOL     OW11972   4.091   2.962   0.501
 3982SOL    HW111973   4.084   3.045   0.445
 3982SOL    HW211974   4.095   2.882   0.441
 3983SOL     OW11975   4.290   2.399   0.865
 3983SOL    HW111976   4.302   2.465   0.791
 3983SOL    HW211977   4.336   2.433   0.948
 3984SOL     OW11978   4.976   3.210   0.388
 3984SOL    HW111979   5.026   3.287   0.428
 3984SOL    HW211980   4.881   3.212   0.420
 3985SOL     OW11981   4.996   3.307   1.142
 3985SOL    HW111982   5.043   3.320   1.229
 3985SOL    HW211983   4.930   3.233   1.151
 3986SOL     OW11984   4.078   3.372   1.329
 3986SOL    HW111985   4.057   3.328   1.242
 3986SOL    HW211986   4.175   3.398   1.332
 3987SOL     OW11987   4.126   2.613   1.598
 3987SOL    HW111988   4.194   2.668   1.551
 3987SOL    HW211989   4.166   2.525   1.625
 3988SOL     OW11990   4.737   1.967   1.770
 3988SOL    HW111991   4.743   2.052   1.718
 3988SOL    HW211992   4.769   1.891   1.713
 3989SOL     OW11993   4.228   1.912   1.740
 3989SOL    HW111994   4.186   1.855   1.670
 3989SOL    HW211995   4.162   1.981   1.772
 3990SOL     OW11996   4.297   2.732   1.029
 3990SOL    HW111997   4.341   2.821   1.020
 3990SOL    HW211998   4.234   2.732   1.106
 3991SOL     OW11999   5.084   2.724   1.045
 3991SOL    HW112000   5.009   2.724   0.979
 3991SOL    HW212001   5.121   2.632   1.054
 3992SOL     OW12002   4.933   2.387   0.275
 3992SOL    HW112003   4.946   2.303   0.329
 3992SOL    HW212004   4.904   2.461   0.335
 3993SOL     OW12005   4.031   2.075   1.231
 3993SOL    HW112006   4.008   2.112   1.321
 3993SOL    HW212007   4.001   1.980   1.225
 3994SOL     OW12008   3.761   3.172   1.282
 3994SOL    HW112009   3.814   3.123   1.350
 3994SOL    HW212010   3.783   3.270   1.287
 3995SOL     OW12011   4.456   2.496   1.064
 3995SOL    HW112012   4.515   2.470   0.988
 3995SOL    HW212013   4.428   2.592   1.053
 3996SOL     OW12014   4.031   1.925   0.618
 3996SOL    HW112015   4.020   2.019   0.651
 3996SOL    HW212016   4.026   1.862   0.695
 3997SOL     OW12017   5.346   2.229   0.374
 3997SOL    HW112018   5.348   2.153   0.438
 3997SOL    HW212019   5.298   2.306   0.414
 3998SOL     OW12020   4.747   2.628   0.966
 3998SOL    HW112021   4.762   2.649   1.062
 3998SOL    HW212022   4.717   2.533   0.957
 3999SOL     OW12023   4.704   3.435   1.700
 3999SOL    HW112024   4.684   3.479   1.612
 3999SOL    HW212025   4.743   3.344   1.684
 4000SOL     OW12026   4.074   2.760   1.804
 4000SOL    HW112027   4.150   2.804   1.852
 4000SOL    HW212028   4.109   2.713   1.722
 4001SOL     OW12029   5.027   2.700   0.042
 4001SOL    HW112030   5.061   2.607   0.057
 4001SOL    HW212031   5.045   2.727  -0.053
 4002SOL     OW12032   4.792   3.195   0.849
 4002SOL    HW112033   4.799   3.111   0.794
 4002SOL    HW212034   4.854   3.264   0.813
 4003SOL     OW12035   4.043   2.672   0.949
 4003SOL    HW112036   4.136   2.708   0.954
 4003SOL    HW212037   4.037   2.587   1.001
 4004SOL     OW12038   4.063   2.371   1.006
 4004SOL    HW112039   4.011   2.288   0.989
 4004SOL    HW212040   4.140   2.376   0.942
 4005SOL     OW12041   4.862   2.242   1.678
 4005SOL    HW112042   4.817   2.305   1.742
 4005SOL    HW212043   4.955   2.273   1.661
 4006SOL     OW12044   4.884   2.069   1.477
 4006SOL    HW112045   4.884   2.133   1.554
 4006SOL    HW212046   4.912   2.117   1.394
 4007SOL     OW12047   3.732   3.188   0.200
 4007SOL    HW112048   3.639   3.209   0.169
 4007SOL    HW212049   3.742   3.089   0.213
 4008SOL     OW12050   3.812   3.663   0.927
 4008SOL    HW112051   3.770   3.577   0.900
 4008SOL    HW212052   3.906   3.666   0.893
 4009SOL     OW12053   4.228   3.430   0.910
 4009SOL    HW112054   4.294   3.504   0.919
 4009SOL    HW212055   4.272   3.351   0.868
 4010SOL     OW12056   4.726   2.658   1.238
 4010SOL    HW112057   4.767   2.626   1.324
 4010SOL    HW212058   4.630   2.631   1.235
 4011SOL     OW12059   3.764   2.406   1.114
 4011SOL    HW112060   3.849   2.373   1.073
 4011SOL    HW212061   3.777   2.421   1.212
 4012SOL     OW12062   3.913   2.382   1.722
 4012SOL    HW112063   3.972   2.342   1.652
 4012SOL    HW212064   3.855   2.453   1.681
 4013SOL     OW12065   5.093   2.812   1.660
 4013SOL    HW112066   5.132   2.901   1.680
 4013SOL    HW212067   5.103   2.792   1.563
 4014SOL     OW12068   4.539   2.434   0.325
 4014SOL    HW112069   4.546   2.345   0.279
 4014SOL    HW212070   4.445   2.468   0.317
 4015SOL     OW12071   3.976   3.426   1.744
 4015SOL    HW112072   3.946   3.483   1.820
 4015SOL    HW212073   3.969   3.329   1.770
 4016SOL     OW12074   4.395   2.326   1.269
 4016SOL    HW112075   4.361   2.237   1.239
 4016SOL    HW212076   4.421   2.380   1.189
 4017SOL     OW12077   4.654   3.540   1.465
 4017SOL    HW112078   4.630   3.522   1.370
 4017SOL    HW212079   4.684   3.634   1.475
 4018SOL     OW12080   4.197   2.362   0.191
 4018SOL    HW112081   4.258   2.442   0.195
 4018SOL    HW212082   4.102   2.393   0.198
 4019SOL     OW12083   3.883   2.999   1.466
 4019SOL    HW112084   3.905   2.938   1.542
 4019SOL    HW212085   3.893   2.950   1.380
 4020SOL     OW12086   5.071   2.921   1.234
 4020SOL    HW112087   5.095   2.858   1.160
 4020SOL    HW212088   4.981   2.961   1.216
 4021SOL     OW12089   5.026   2.717   0.309
 4021SOL    HW112090   4.940   2.686   0.351
 4021SOL    HW212091   5.022   2.703   0.210
 4022SOL     OW12092   4.976   3.593   1.128
 4022SOL    HW112093   5.060   3.598   1.074
 4022SOL    HW212094   4.953   3.497   1.146
 4023SOL     OW12095   3.807   3.120   1.022
 4023SOL    HW112096   3.802   3.119   1.122
 4023SOL    HW212097   3.724   3.079   0.984
 4024SOL     OW12098   4.412   3.524   1.716
 4024SOL    HW112099   4.356   3.605   1.725
 4024SOL    HW212100   4.464   3.528   1.630
 4025SOL     OW12101   4.627   1.948   0.133
 4025SOL    HW112102   4.678   1.949   0.047
 4025SOL    HW212103   4.683   1.906   0.204
 4026SOL     OW12104   5.450   1.997   0.523
 4026SOL    HW112105   5.523   1.980   0.456
 4026SOL    HW212106   5.419   1.910   0.561
 4027SOL     OW12107   5.112   3.435   0.477
 4027SOL    HW112108   5.179   3.447   0.403
 4027SOL    HW212109   5.072   3.524   0.500
 4028SOL     OW12110   3.854   3.656   1.851
 4028SOL    HW112111   3.813   3.582   1.904
 4028SOL    HW212112   3.918   3.707   1.909
 4029SOL     OW12113   5.004   2.789   0.672
 4029SOL    HW112114   5.064   2.708   0.674
 4029SOL    HW212115   5.044   2.858   0.612
 4030SOL     OW12116   4.554   3.135   1.422
 4030SOL    HW112117   4.549   3.168   1.517
 4030SOL    HW212118   4.468   3.154   1.376
 4031SOL     OW12119   4.396   3.478   0.154
 4031SOL    HW112120   4.405   3.488   0.055
 4031SOL    HW212121   4.356   3.389   0.175
 4032SOL     OW12122   3.987   2.188   0.720
 4032SOL    HW112123   3.908   2.239   0.686
 4032SOL    HW212124   3.978   2.173   0.818
 4033SOL     OW12125   4.918   3.474   0.031
 4033SOL    HW112126   4.924   3.381   0.068
 4033SOL    HW212127   4.859   3.474  -0.049
 4034SOL     OW12128   4.546   2.864   1.372
 4034SOL    HW112129   4.586   2.863   1.280
 4034SOL    HW212130   4.556   2.956   1.412
 4035SOL     OW12131   4.640   2.772   0.291
 4035SOL    HW112132   4.703   2.810   0.223
 4035SOL    HW212133   4.680   2.689   0.330
 4036SOL     OW12134   4.096   3.150   1.490
 4036SOL    HW112135   4.083   3.243   1.456
 4036SOL    HW212136   4.012   3.098   1.477
 4037SOL     OW12137   4.763   2.960   0.696
 4037SOL    HW112138   4.693   2.913   0.750
 4037SOL    HW212139   4.822   2.892   0.653
 4038SOL     OW12140   4.738   2.098   0.971
 4038SOL    HW112141   4.730   2.062   0.878
 4038SOL    HW212142   4.736   2.022   1.036
 4039SOL     OW12143   4.314   3.349   0.491
 4039SOL    HW112144   4.356   3.291   0.421
 4039SOL    HW212145   4.270   3.428   0.447
 4040SOL     OW12146   3.979   3.210   0.290
 4040SOL    HW112147   3.883   3.211   0.263
 4040SOL    HW212148   3.991   3.263   0.374
 4041SOL     OW12149   3.829   2.875   1.726
 4041SOL    HW112150   3.752   2.842   1.780
 4041SOL    HW212151   3.914   2.845   1.768
 4042SOL     OW12152   4.396   2.065   1.489
 4042SOL    HW112153   4.486   2.049   1.449
 4042SOL    HW212154   4.404   2.070   1.588
 4043SOL     OW12155   3.799   2.207   0.033
 4043SOL    HW112156   3.707   2.179   0.004
 4043SOL    HW212157   3.830   2.284  -0.023
 4044SOL     OW12158   5.164   2.718   1.398
 4044SOL    HW112159   5.107   2.770   1.335
 4044SOL    HW212160   5.260   2.730   1.374
 4045SOL     OW12161   3.796   2.028   0.318
 4045SOL    HW112162   3.779   2.111   0.264
 4045SOL    HW212163   3.886   1.991   0.296
 4046SOL     OW12164   4.907   3.197   0.119
 4046SOL    HW112165   4.808   3.186   0.121
 4046SOL    HW212166   4.941   3.212   0.212
 4047SOL     OW12167   4.337   2.704   1.431
 4047SOL    HW112168   4.393   2.785   1.414
 4047SOL    HW212169   4.396   2.624   1.434
 4048SOL     OW12170   4.440   2.427   1.708
 4048SOL    HW112171   4.459   2.492   1.782
 4048SOL    HW212172   4.500   2.347   1.717
 4049SOL     OW12173   5.174   3.082   1.633
 4049SOL    HW112174   5.165   3.072   1.732
 4049SOL    HW212175   5.270   3.075   1.607
 4050SOL     OW12176   4.114   3.603   1.560
 4050SOL    HW112177   4.023   3.644   1.558
 4050SOL    HW212178   4.107   3.509   1.592
 4051SOL     OW12179   4.949   2.187   0.449
 4051SOL    HW112180   5.014   2.113   0.438
 4051SOL    HW212181   4.969   2.237   0.533
 4052SOL     OW12182   4.318   2.607   0.652
 4052SOL    HW112183   4.368   2.692   0.633
 4052SOL    HW212184   4.230   2.609   0.604
 4053SOL     OW12185   4.583   3.236   0.016
 4053SOL    HW112186   4.537   3.251   0.104
 4053SOL    HW212187   4.627   3.321  -0.014
 4054SOL     OW12188   4.385   3.652   0.953
 4054SOL    HW112189   4.339   3.740   0.940
 4054SOL    HW212190   4.484   3.664   0.946
 4055SOL     OW12191   4.583   2.818   0.861
 4055SOL    HW112192   4.637   2.749   0.909
 4055SOL    HW212193   4.551   2.887   0.927
 4056SOL     OW12194   4.807   2.846   0.087
 4056SOL    HW112195   4.784   2.899   0.005
 4056SOL    HW212196   4.888   2.790   0.068
 4057SOL     OW12197   3.945   3.176   1.844
 4057SOL    HW112198   3.880   3.103   1.823
 4057SOL    HW212199   3.949   3.190   1.942
 4058SOL     OW12200   3.803   3.102   0.653
 4058SOL    HW112201   3.802   3.055   0.741
 4058SOL    HW212202   3.885   3.074   0.602
 4059SOL     OW12203   4.396   3.253   1.624
 4059SOL    HW112204   4.318   3.203   1.662
 4059SOL    HW212205   4.393   3.348   1.655
 4060SOL     OW12206   4.152   2.286   0.520
 4060SOL    HW112207   4.182   2.214   0.458
 4060SOL    HW212208   4.113   2.246   0.603
 4061SOL     OW12209   5.429   3.349   1.104
 4061SOL    HW112210   5.336   3.324   1.077
 4061SOL    HW212211   5.455   3.299   1.186
 4062SOL     OW12212   4.041   2.409   1.280
 4062SOL    HW112213   4.079   2.350   1.352
 4062SOL    HW212214   4.081   2.383   1.192
 4063SOL     OW12215   4.536   3.448   0.687
 4063SOL    HW112216   4.568   3.458   0.593
 4063SOL    HW212217   4.457   3.386   0.689
 4064SOL     OW12218   5.148   2.076   1.112
 4064SOL    HW112219   5.200   2.011   1.167
 4064SOL    HW212220   5.099   2.139   1.173
 4065SOL     OW12221   4.725   1.896   1.154
 4065SOL    HW112222   4.662   1.824   1.123
 4065SOL    HW212223   4.818   1.860   1.154
 4066SOL     OW12224   4.494   3.192   0.301
 4066SOL    HW112225   4.448   3.105   0.318
 4066SOL    HW212226   4.585   3.189   0.342
 4067SOL     OW12227   4.342   3.429   1.284
 4067SOL    HW112228   4.337   3.511   1.341
 4067SOL    HW212229   4.431   3.426   1.239
 4068SOL     OW12230   5.076   1.914   0.168
 4068SOL    HW112231   5.111   1.873   0.084
 4068SOL    HW212232   4.986   1.876   0.188
 4069SOL     OW12233   5.024   2.315   0.691
 4069SOL    HW112234   4.965   2.395   0.695
 4069SOL    HW212235   5.039   2.280   0.784
 4070SOL     OW12236   3.763   2.939   0.300
 4070SOL    HW112237   3.862   2.928   0.291
 4070SOL    HW212238   3.723   2.853   0.332
 4071SOL     OW12239   4.599   3.508   0.337
 4071SOL    HW112240   4.522   3.473   0.283
 4071SOL    HW212241   4.567   3.579   0.399
 4072SOL     OW12242   3.954   2.490   1.975
 4072SOL    HW112243   3.861   2.488   2.012
 4072SOL    HW212244   3.955   2.451   1.883
 4073SOL     OW12245   3.949   2.137   2.858
 4073SOL    HW112246   3.984   2.120   2.950
 4073SOL    HW212247   3.861   2.092   2.846
 4074SOL     OW12248   3.743   2.230   2.509
 4074SOL    HW112249   3.661   2.273   2.548
 4074SOL    HW212250   3.715   2.157   2.446
 4075SOL     OW12251   4.293   3.137   3.027
 4075SOL    HW112252   4.200   3.130   2.990
 4075SOL    HW212253   4.304   3.226   3.071
 4076SOL     OW12254   5.279   3.373   2.565
 4076SOL    HW112255   5.222   3.357   2.646
 4076SOL    HW212256   5.220   3.383   2.485
 4077SOL     OW12257   4.859   2.565   2.579
 4077SOL    HW112258   4.916   2.643   2.554
 4077SOL    HW212259   4.799   2.591   2.655
 4078SOL     OW12260   4.492   3.006   2.885
 4078SOL    HW112261   4.414   3.023   2.945
 4078SOL    HW212262   4.526   3.093   2.849
 4079SOL     OW12263   4.574   2.660   3.685
 4079SOL    HW112264   4.570   2.736   3.750
 4079SOL    HW212265   4.596   2.696   3.594
 4080SOL     OW12266   4.409   2.874   2.527
 4080SOL    HW112267   4.478   2.858   2.597
 4080SOL    HW212268   4.336   2.931   2.565
 4081SOL     OW12269   4.410   3.023   3.665
 4081SOL    HW112270   4.470   3.102   3.679
 4081SOL    HW212271   4.324   3.054   3.624
 4082SOL     OW12272   4.059   3.297   2.923
 4082SOL    HW112273   3.981   3.266   2.870
 4082SOL    HW212274   4.117   3.355   2.866
 4083SOL     OW12275   4.162   2.254   3.361
 4083SOL    HW112276   4.244   2.198   3.370
 4083SOL    HW212277   4.081   2.196   3.365
 4084SOL     OW12278   3.955   3.575   2.345
 4084SOL    HW112279   3.989   3.652   2.399
 4084SOL    HW212280   3.999   3.575   2.255
 4085SOL     OW12281   4.851   3.203   3.552
 4085SOL    HW112282   4.898   3.203   3.640
 4085SOL    HW212283   4.803   3.116   3.541
 4086SOL     OW12284   3.954   3.296   2.400
 4086SOL    HW112285   3.928   3.392   2.400
 4086SOL    HW212286   3.883   3.242   2.445
 4087SOL     OW12287   3.964   2.953   2.748
 4087SOL    HW112288   3.978   2.869   2.800
 4087SOL    HW212289   3.909   3.017   2.803
 4088SOL     OW12290   4.344   3.648   3.301
 4088SOL    HW112291   4.252   3.631   3.336
 4088SOL    HW212292   4.372   3.740   3.327
 4089SOL     OW12293   4.330   2.826   1.985
 4089SOL    HW112294   4.337   2.910   1.931
 4089SOL    HW212295   4.376   2.839   2.073
 4090SOL     OW12296   3.846   2.505   2.425
 4090SOL    HW112297   3.801   2.417   2.442
 4090SOL    HW212298   3.845   2.559   2.509
 4091SOL     OW12299   3.751   3.458   1.979
 4091SOL    HW112300   3.732   3.362   2.000
 4091SOL    HW212301   3.718   3.516   2.054
 4092SOL     OW12302   5.413   2.784   2.474
 4092SOL    HW112303   5.508   2.755   2.482
 4092SOL    HW212304   5.405   2.849   2.399
 4093SOL     OW12305   3.837   2.599   3.459
 4093SOL    HW112306   3.925   2.586   3.504
 4093SOL    HW212307   3.824   2.696   3.437
 4094SOL     OW12308   4.337   3.227   2.588
 4094SOL    HW112309   4.288   3.140   2.597
 4094SOL    HW212310   4.314   3.270   2.501
 4095SOL     OW12311   5.017   3.090   3.285
 4095SOL    HW112312   5.054   3.017   3.227
 4095SOL    HW212313   5.069   3.095   3.370
 4096SOL     OW12314   4.533   1.866   2.364
 4096SOL    HW112315   4.573   1.957   2.355
 4096SOL    HW212316   4.433   1.874   2.370
 4097SOL     OW12317   3.921   2.838   3.126
 4097SOL    HW112318   4.010   2.793   3.112
 4097SOL    HW212319   3.848   2.773   3.107
 4098SOL     OW12320   4.911   3.654   3.478
 4098SOL    HW112321   4.935   3.714   3.402
 4098SOL    HW212322   4.918   3.559   3.448
 4099SOL     OW12323   4.041   2.113   3.663
 4099SOL    HW112324   4.112   2.184   3.669
 4099SOL    HW212325   3.953   2.152   3.691
 4100SOL     OW12326   5.190   3.279   2.815
 4100SOL    HW112327   5.131   3.285   2.895
 4100SOL    HW212328   5.175   3.191   2.769
 4101SOL     OW12329   4.322   2.591   2.132
 4101SOL    HW112330   4.346   2.660   2.064
 4101SOL    HW212331   4.244   2.624   2.186
 4102SOL     OW12332   5.005   2.207   2.806
 4102SOL    HW112333   4.919   2.157   2.793
 4102SOL    HW212334   5.067   2.153   2.862
 4103SOL     OW12335   4.531   2.467   3.327
 4103SOL    HW112336   4.484   2.464   3.416
 4103SOL    HW212337   4.480   2.412   3.261
 4104SOL     OW12338   5.118   2.331   3.536
 4104SOL    HW112339   5.098   2.374   3.624
 4104SOL    HW212340   5.196   2.269   3.545
 4105SOL     OW12341   4.697   2.752   3.434
 4105SOL    HW112342   4.743   2.668   3.405
 4105SOL    HW212343   4.641   2.786   3.359
 4106SOL     OW12344   4.715   2.272   3.104
 4106SOL    HW112345   4.638   2.306   3.158
 4106SOL    HW212346   4.681   2.221   3.025
 4107SOL     OW12347   4.765   2.563   2.291
 4107SOL    HW112348   4.791   2.559   2.387
 4107SOL    HW212349   4.680   2.512   2.277
 4108SOL     OW12350   3.800   2.673   2.651
 4108SOL    HW112351   3.899   2.661   2.660
 4108SOL    HW212352   3.776   2.768   2.672
 4109SOL     OW12353   3.854   3.683   3.433
 4109SOL    HW112354   3.844   3.668   3.532
 4109SOL    HW212355   3.768   3.719   3.397
 4110SOL     OW12356   4.589   2.210   2.057
 4110SOL    HW112357   4.648   2.273   2.008
 4110SOL    HW212358   4.608   2.116   2.028
 4111SOL     OW12359   5.086   3.006   2.407
 4111SOL    HW112360   5.169   2.977   2.359
 4111SOL    HW212361   5.037   3.073   2.351
 4112SOL     OW12362   4.274   2.058   2.747
 4112SOL    HW112363   4.269   2.053   2.847
 4112SOL    HW212364   4.276   2.154   2.718
 4113SOL     OW12365   4.732   3.318   2.339
 4113SOL    HW112366   4.686   3.390   2.287
 4113SOL    HW212367   4.728   3.338   2.437
 4114SOL     OW12368   4.075   3.663   2.715
 4114SOL    HW112369   4.125   3.577   2.721
 4114SOL    HW212370   4.140   3.740   2.712
 4115SOL     OW12371   4.951   3.412   3.368
 4115SOL    HW112372   4.957   3.335   3.432
 4115SOL    HW212373   4.899   3.386   3.288
 4116SOL     OW12374   4.045   2.805   2.104
 4116SOL    HW112375   4.127   2.844   2.062
 4116SOL    HW212376   4.018   2.723   2.055
 4117SOL     OW12377   4.185   3.128   3.589
 4117SOL    HW112378   4.135   3.129   3.503
 4117SOL    HW212379   4.122   3.110   3.665
 4118SOL     OW12380   4.835   3.638   2.099
 4118SOL    HW112381   4.775   3.576   2.149
 4118SOL    HW212382   4.866   3.594   2.014
 4119SOL     OW12383   3.926   2.147   3.360
 4119SOL    HW112384   3.846   2.207   3.347
 4119SOL    HW212385   3.916   2.098   3.446
 4120SOL     OW12386   4.188   3.605   2.185
 4120SOL    HW112387   4.221   3.644   2.271
 4120SOL    HW212388   4.264   3.598   2.120
 4121SOL     OW12389   5.124   1.969   2.288
 4121SOL    HW112390   5.100   1.932   2.198
 4121SOL    HW212391   5.223   1.985   2.292
 4122SOL     OW12392   3.973   3.647   3.103
 4122SOL    HW112393   4.030   3.582   3.153
 4122SOL    HW212394   3.957   3.614   3.010
 4123SOL     OW12395   4.664   3.560   2.766
 4123SOL    HW112396   4.744   3.503   2.787
 4123SOL    HW212397   4.615   3.520   2.689
 4124SOL     OW12398   4.106   2.562   2.342
 4124SOL    HW112399   4.151   2.472   2.339
 4124SOL    HW212400   4.012   2.551   2.375
 4125SOL     OW12401   4.338   1.984   1.979
 4125SOL    HW112402   4.436   1.962   1.986
 4125SOL    HW212403   4.307   1.967   1.886
 4126SOL     OW12404   4.505   2.126   3.611
 4126SOL    HW112405   4.572   2.065   3.654
 4126SOL    HW212406   4.432   2.145   3.676
 4127SOL     OW12407   4.612   3.376   3.057
 4127SOL    HW112408   4.589   3.351   2.963
 4127SOL    HW212409   4.673   3.307   3.096
 4128SOL     OW12410   5.075   2.452   3.295
 4128SOL    HW112411   5.103   2.409   3.380
 4128SOL    HW212412   5.100   2.548   3.296
 4129SOL     OW12413   4.527   3.264   2.786
 4129SOL    HW112414   4.617   3.278   2.744
 4129SOL    HW212415   4.456   3.266   2.715
 4130SOL     OW12416   4.646   2.365   2.761
 4130SOL    HW112417   4.621   2.356   2.665
 4130SOL    HW212418   4.694   2.283   2.792
 4131SOL     OW12419   4.263   1.926   2.374
 4131SOL    HW112420   4.182   1.927   2.432
 4131SOL    HW212421   4.266   2.009   2.319
 4132SOL     OW12422   5.158   3.050   1.903
 4132SOL    HW112423   5.190   2.974   1.960
 4132SOL    HW212424   5.066   3.077   1.933
 4133SOL     OW12425   4.021   1.897   2.033
 4133SOL    HW112426   4.070   1.981   2.012
 4133SOL    HW212427   4.083   1.832   2.078
 4134SOL     OW12428   4.659   2.098   2.342
 4134SOL    HW112429   4.611   2.139   2.264
 4134SOL    HW212430   4.758   2.096   2.323
 4135SOL     OW12431   4.800   2.545   3.326
 4135SOL    HW112432   4.720   2.484   3.329
 4135SOL    HW212433   4.881   2.492   3.302
 4136SOL     OW12434   4.951   3.432   2.655
 4136SOL    HW112435   4.972   3.506   2.590
 4136SOL    HW212436   5.019   3.432   2.728
 4137SOL     OW12437   4.183   3.014   2.603
 4137SOL    HW112438   4.112   2.987   2.668
 4137SOL    HW212439   4.157   2.986   2.510
 4138SOL     OW12440   4.995   3.659   2.453
 4138SOL    HW112441   5.039   3.723   2.389
 4138SOL    HW212442   4.945   3.711   2.523
 4139SOL     OW12443   4.756   2.411   1.878
 4139SOL    HW112444   4.715   2.493   1.839
 4139SOL    HW212445   4.820   2.437   1.951
 4140SOL     OW12446   3.802   2.418   3.248
 4140SOL    HW112447   3.894   2.417   3.207
 4140SOL    HW212448   3.796   2.492   3.315
 4141SOL     OW12449   4.285   2.084   3.009
 4141SOL    HW112450   4.323   2.000   3.046
 4141SOL    HW212451   4.197   2.103   3.053
 4142SOL     OW12452   4.590   2.316   2.504
 4142SOL    HW112453   4.558   2.388   2.442
 4142SOL    HW212454   4.614   2.235   2.451
 4143SOL     OW12455   4.741   1.901   2.615
 4143SOL    HW112456   4.669   1.906   2.546
 4143SOL    HW212457   4.717   1.832   2.684
 4144SOL     OW12458   5.153   3.035   2.729
 4144SOL    HW112459   5.098   2.951   2.722
 4144SOL    HW212460   5.179   3.064   2.637
 4145SOL     OW12461   4.212   3.247   2.036
 4145SOL    HW112462   4.125   3.232   2.083
 4145SOL    HW212463   4.195   3.273   1.941
 4146SOL     OW12464   5.114   2.437   1.940
 4146SOL    HW112465   5.060   2.416   2.021
 4146SOL    HW212466   5.205   2.396   1.949
 4147SOL     OW12467   4.251   2.118   2.190
 4147SOL    HW112468   4.278   2.059   2.115
 4147SOL    HW212469   4.251   2.213   2.159
 4148SOL     OW12470   4.788   3.209   3.202
 4148SOL    HW112471   4.708   3.186   3.257
 4148SOL    HW212472   4.871   3.183   3.251
 4149SOL     OW12473   5.316   3.491   3.487
 4149SOL    HW112474   5.343   3.525   3.397
 4149SOL    HW212475   5.395   3.453   3.533
 4150SOL     OW12476   4.835   3.057   2.962
 4150SOL    HW112477   4.795   3.101   3.043
 4150SOL    HW212478   4.794   3.094   2.879
 4151SOL     OW12479   4.639   1.951   3.264
 4151SOL    HW112480   4.664   1.931   3.169
 4151SOL    HW212481   4.711   2.007   3.306
 4152SOL     OW12482   4.704   2.978   3.581
 4152SOL    HW112483   4.605   2.984   3.591
 4152SOL    HW212484   4.727   2.898   3.525
 4153SOL     OW12485   4.429   2.912   2.230
 4153SOL    HW112486   4.415   2.919   2.329
 4153SOL    HW212487   4.513   2.861   2.212
 4154SOL     OW12488   4.134   2.675   3.113
 4154SOL    HW112489   4.220   2.687   3.163
 4154SOL    HW212490   4.092   2.588   3.140
 4155SOL     OW12491   4.998   2.248   3.124
 4155SOL    HW112492   5.019   2.322   3.188
 4155SOL    HW212493   4.909   2.265   3.081
 4156SOL     OW12494   3.788   3.426   3.193
 4156SOL    HW112495   3.742   3.508   3.159
 4156SOL    HW212496   3.886   3.445   3.202
 4157SOL     OW12497   4.091   2.962   2.363
 4157SOL    HW112498   4.084   3.045   2.307
 4157SOL    HW212499   4.095   2.882   2.303
 4158SOL     OW12500   4.290   2.399   2.727
 4158SOL    HW112501   4.302   2.465   2.653
 4158SOL    HW212502   4.336   2.433   2.810
 4159SOL     OW12503   4.976   3.210   2.250
 4159SOL    HW112504   5.026   3.287   2.290
 4159SOL    HW212505   4.881   3.212   2.282
 4160SOL     OW12506   4.996   3.307   3.004
 4160SOL    HW112507   5.043   3.320   3.091
 4160SOL    HW212508   4.930   3.233   3.013
 4161SOL     OW12509   4.078   3.372   3.191
 4161SOL    HW112510   4.057   3.328   3.104
 4161SOL    HW212511   4.175   3.398   3.194
 4162SOL     OW12512   4.126   2.613   3.460
 4162SOL    HW112513   4.194   2.668   3.413
 4162SOL    HW212514   4.166   2.525   3.487
 4163SOL     OW12515   4.737   1.967   3.632
 4163SOL    HW112516   4.743   2.052   3.580
 4163SOL    HW212517   4.769   1.891   3.575
 4164SOL     OW12518   4.228   1.912   3.602
 4164SOL    HW112519   4.186   1.855   3.532
 4164SOL    HW212520   4.162   1.981   3.634
 4165SOL     OW12521   4.297   2.732   2.891
 4165SOL    HW112522   4.341   2.821   2.882
 4165SOL    HW212523   4.234   2.732   2.968
 4166SOL     OW12524   5.084   2.724   2.907
 4166SOL    HW112525   5.009   2.724   2.841
 4166SOL    HW212526   5.121   2.632   2.916
 4167SOL     OW12527   4.933   2.387   2.137
 4167SOL    HW112528   4.946   2.303   2.191
 4167SOL    HW212529   4.904   2.461   2.197
 4168SOL     OW12530   4.031   2.075   3.093
 4168SOL    HW112531   4.008   2.112   3.183
 4168SOL    HW212532   4.001   1.980   3.087
 4169SOL     OW12533   3.761   3.172   3.144
 4169SOL    HW112534   3.814   3.123   3.212
 4169SOL    HW212535   3.783   3.270   3.149
 4170SOL     OW12536   4.456   2.496   2.926
 4170SOL    HW112537   4.515   2.470   2.850
 4170SOL    HW212538   4.428   2.592   2.915
 4171SOL     OW12539   4.031   1.925   2.480
 4171SOL    HW112540   4.020   2.019   2.513
 4171SOL    HW212541   4.026   1.862   2.557
 4172SOL     OW12542   5.346   2.229   2.236
 4172SOL    HW112543   5.348   2.153   2.300
 4172SOL    HW212544   5.298   2.306   2.276
 4173SOL     OW12545   4.747   2.628   2.828
 4173SOL    HW112546   4.762   2.649   2.924
 4173SOL    HW212547   4.717   2.533   2.819
 4174SOL     OW12548   4.704   3.435   3.562
 4174SOL    HW112549   4.684   3.479   3.474
 4174SOL    HW212550   4.743   3.344   3.546
 4175SOL     OW12551   4.074   2.760   3.666
 4175SOL    HW112552   4.150   2.804   3.714
 4175SOL    HW212553   4.109   2.713   3.584
 4176SOL     OW12554   5.027   2.700   1.904
 4176SOL    HW112555   5.061   2.607   1.919
 4176SOL    HW212556   5.045   2.727   1.809
 4177SOL     OW12557   4.792   3.195   2.711
 4177SOL    HW112558   4.799   3.111   2.656
 4177SOL    HW212559   4.854   3.264   2.675
 4178SOL     OW12560   4.043   2.672   2.811
 4178SOL    HW112561   4.136   2.708   2.816
 4178SOL    HW212562   4.037   2.587   2.863
 4179SOL     OW12563   4.063   2.371   2.868
 4179SOL    HW112564   4.011   2.288   2.851
 4179SOL    HW212565   4.140   2.376   2.804
 4180SOL     OW12566   4.862   2.242   3.540
 4180SOL    HW112567   4.817   2.305   3.604
 4180SOL    HW212568   4.955   2.273   3.523
 4181SOL     OW12569   4.884   2.069   3.339
 4181SOL    HW112570   4.884   2.133   3.416
 4181SOL    HW212571   4.912   2.117   3.256
 4182SOL     OW12572   3.732   3.188   2.062
 4182SOL    HW112573   3.639   3.209   2.031
 4182SOL    HW212574   3.742   3.089   2.075
 4183SOL     OW12575   3.812   3.663   2.789
 4183SOL    HW112576   3.770   3.577   2.762
 4183SOL    HW212577   3.906   3.666   2.755
 4184SOL     OW12578   4.228   3.430   2.772
 4184SOL    HW112579   4.294   3.504   2.781
 4184SOL    HW212580   4.272   3.351   2.730
 4185SOL     OW12581   4.726   2.658   3.100
 4185SOL    HW112582   4.767   2.626   3.186
 4185SOL    HW212583   4.630   2.631   3.097
 4186SOL     OW12584   3.764   2.406   2.976
 4186SOL    HW112585   3.849   2.373   2.935
 4186SOL    HW212586   3.777   2.421   3.074
 4187SOL     OW12587   3.913   2.382   3.584
 4187SOL    HW112588   3.972   2.342   3.514
 4187SOL    HW212589   3.855   2.453   3.543
 4188SOL     OW12590   5.093   2.812   3.522
 4188SOL    HW112591   5.132   2.901   3.542
 4188SOL    HW212592   5.103   2.792   3.425
 4189SOL     OW12593   4.539   2.434   2.187
 4189SOL    HW112594   4.546   2.345   2.141
 4189SOL    HW212595   4.445   2.468   2.179
 4190SOL     OW12596   3.976   3.426   3.606
 4190SOL    HW112597   3.946   3.483   3.682
 4190SOL    HW212598   3.969   3.329   3.632
 4191SOL     OW12599   4.395   2.326   3.131
 4191SOL    HW112600   4.361   2.237   3.101
 4191SOL    HW212601   4.421   2.380   3.051
 4192SOL     OW12602   4.654   3.540   3.327
 4192SOL    HW112603   4.630   3.522   3.232
 4192SOL    HW212604   4.684   3.634   3.337
 4193SOL     OW12605   4.197   2.362   2.053
 4193SOL    HW112606   4.258   2.442   2.057
 4193SOL    HW212607   4.102   2.393   2.060
 4194SOL     OW12608   3.883   2.999   3.328
 4194SOL    HW112609   3.905   2.938   3.404
 4194SOL    HW212610   3.893   2.950   3.242
 4195SOL     OW12611   5.071   2.921   3.096
 4195SOL    HW112612   5.095   2.858   3.022
 4195SOL    HW212613   4.981   2.961   3.078
 4196SOL     OW12614   5.026   2.717   2.171
 4196SOL    HW112615   4.940   2.686   2.213
 4196SOL    HW212616   5.022   2.703   2.072
 4197SOL     OW12617   4.976   3.593   2.990
 4197SOL    HW112618   5.060   3.598   2.936
 4197SOL    HW212619   4.953   3.497   3.008
 4198SOL     OW12620   3.807   3.120   2.884
 4198SOL    HW112621   3.802   3.119   2.984
 4198SOL    HW212622   3.724   3.079   2.846
 4199SOL     OW12623   4.412   3.524   3.578
 4199SOL    HW112624   4.356   3.605   3.587
 4199SOL    HW212625   4.464   3.528   3.492
 4200SOL     OW12626   5.450   1.997   2.385
 4200SOL    HW112627   5.523   1.980   2.318
 4200SOL    HW212628   5.419   1.910   2.423
 4201SOL     OW12629   5.112   3.435   2.339
 4201SOL    HW112630   5.179   3.447   2.265
 4201SOL    HW212631   5.072   3.524   2.362
 4202SOL     OW12632   3.854   3.656   3.713
 4202SOL    HW112633   3.813   3.582   3.766
 4202SOL    HW212634   3.918   3.707   3.771
 4203SOL     OW12635   5.004   2.789   2.534
 4203SOL    HW112636   5.064   2.708   2.536
 4203SOL    HW212637   5.044   2.858   2.474
 4204SOL     OW12638   4.554   3.135   3.284
 4204SOL    HW112639   4.549   3.168   3.379
 4204SOL    HW212640   4.468   3.154   3.238
 4205SOL     OW12641   4.396   3.478   2.016
 4205SOL    HW112642   4.405   3.488   1.917
 4205SOL    HW212643   4.356   3.389   2.037
 4206SOL     OW12644   3.987   2.188   2.582
 4206SOL    HW112645   3.908   2.239   2.548
 4206SOL    HW212646   3.978   2.173   2.680
 4207SOL     OW12647   4.918   3.474   1.893
 4207SOL    HW112648   4.924   3.381   1.930
 4207SOL    HW212649   4.859   3.474   1.813
 4208SOL     OW12650   4.546   2.864   3.234
 4208SOL    HW112651   4.586   2.863   3.142
 4208SOL    HW212652   4.556   2.956   3.274
 4209SOL     OW12653   4.640   2.772   2.153
 4209SOL    HW112654   4.703   2.810   2.085
 4209SOL    HW212655   4.680   2.689   2.192
 4210SOL     OW12656   4.096   3.150   3.352
 4210SOL    HW112657   4.083   3.243   3.318
 4210SOL    HW212658   4.012   3.098   3.339
 4211SOL     OW12659   4.763   2.960   2.558
 4211SOL    HW112660   4.693   2.913   2.612
 4211SOL    HW212661   4.822   2.892   2.515
 4212SOL     OW12662   4.738   2.098   2.833
 4212SOL    HW112663   4.730   2.062   2.740
 4212SOL    HW212664   4.736   2.022   2.898
 4213SOL     OW12665   4.314   3.349   2.353
 4213SOL    HW112666   4.356   3.291   2.283
 4213SOL    HW212667   4.270   3.428   2.309
 4214SOL     OW12668   3.979   3.210   2.152
 4214SOL    HW112669   3.883   3.211   2.125
 4214SOL    HW212670   3.991   3.263   2.236
 4215SOL     OW12671   3.829   2.875   3.588
 4215SOL    HW112672   3.752   2.842   3.642
 4215SOL    HW212673   3.914   2.845   3.630
 4216SOL     OW12674   4.396   2.065   3.351
 4216SOL    HW112675   4.486   2.049   3.311
 4216SOL    HW212676   4.404   2.070   3.450
 4217SOL     OW12677   3.799   2.207   1.895
 4217SOL    HW112678   3.707   2.179   1.866
 4217SOL    HW212679   3.830   2.284   1.839
 4218SOL     OW12680   5.164   2.718   3.260
 4218SOL    HW112681   5.107   2.770   3.197
 4218SOL    HW212682   5.260   2.730   3.236
 4219SOL     OW12683   3.796   2.028   2.180
 4219SOL    HW112684   3.779   2.111   2.126
 4219SOL    HW212685   3.886   1.991   2.158
 4220SOL     OW12686   4.907   3.197   1.981
 4220SOL    HW112687   4.808   3.186   1.983
 4220SOL    HW212688   4.941   3.212   2.074
 4221SOL     OW12689   4.337   2.704   3.293
 4221SOL    HW112690   4.393   2.785   3.276
 4221SOL    HW212691   4.396   2.624   3.296
 4222SOL     OW12692   4.440   2.427   3.570
 4222SOL    HW112693   4.459   2.492   3.644
 4222SOL    HW212694   4.500   2.347   3.579
 4223SOL     OW12695   5.174   3.082   3.495
 4223SOL    HW112696   5.165   3.072   3.594
 4223SOL    HW212697   5.270   3.075   3.469
 4224SOL     OW12698   4.114   3.603   3.422
 4224SOL    HW112699   4.023   3.644   3.420
 4224SOL    HW212700   4.107   3.509   3.454
 4225SOL     OW12701   4.949   2.187   2.311
 4225SOL    HW112702   5.014   2.113   2.300
 4225SOL    HW212703   4.969   2.237   2.395
 4226SOL     OW12704   4.318   2.607   2.514
 4226SOL    HW112705   4.368   2.692   2.495
 4226SOL    HW212706   4.230   2.609   2.466
 4227SOL     OW12707   4.583   3.236   1.878
 4227SOL    HW112708   4.537   3.251   1.966
 4227SOL    HW212709   4.627   3.321   1.848
 4228SOL     OW12710   4.385   3.652   2.815
 4228SOL    HW112711   4.339   3.740   2.802
 4228SOL    HW212712   4.484   3.664   2.808
 4229SOL     OW12713   4.583   2.818   2.723
 4229SOL    HW112714   4.637   2.749   2.771
 4229SOL    HW212715   4.551   2.887   2.789
 4230SOL     OW12716   4.807   2.846   1.949
 4230SOL    HW112717   4.784   2.899   1.867
 4230SOL    HW212718   4.888   2.790   1.930
 4231SOL     OW12719   3.945   3.176   3.706
 4231SOL    HW112720   3.880   3.103   3.685
 4231SOL    HW212721   3.949   3.190   3.804
 4232SOL     OW12722   3.803   3.102   2.515
 4232SOL    HW112723   3.802   3.055   2.603
 4232SOL    HW212724   3.885   3.074   2.464
 4233SOL     OW12725   4.396   3.253   3.486
 4233SOL    HW112726   4.318   3.203   3.524
 4233SOL    HW212727   4.393   3.348   3.517
 4234SOL     OW12728   4.152   2.286   2.382
 4234SOL    HW112729   4.182   2.214   2.320
 4234SOL    HW212730   4.113   2.246   2.465
 4235SOL     OW12731   5.429   3.349   2.966
 4235SOL    HW112732   5.336   3.324   2.939
 4235SOL    HW212733   5.455   3.299   3.048
 4236SOL     OW12734   4.041   2.409   3.142
 4236SOL    HW112735   4.079   2.350   3.214
 4236SOL    HW212736   4.081   2.383   3.054
 4237SOL     OW12737   4.536   3.448   2.549
 4237SOL    HW112738   4.568   3.458   2.455
 4237SOL    HW212739   4.457   3.386   2.551
 4238SOL     OW12740   5.148   2.076   2.974
 4238SOL    HW112741   5.200   2.011   3.029
 4238SOL    HW212742   5.099   2.139   3.035
 4239SOL     OW12743   4.725   1.896   3.016
 4239SOL    HW112744   4.662   1.824   2.985
 4239SOL    HW212745   4.818   1.860   3.016
 4240SOL     OW12746   4.494   3.192   2.163
 4240SOL    HW112747   4.448   3.105   2.180
 4240SOL    HW212748   4.585   3.189   2.204
 4241SOL     OW12749   4.342   3.429   3.146
 4241SOL    HW112750   4.337   3.511   3.203
 4241SOL    HW212751   4.431   3.426   3.101
 4242SOL     OW12752   5.076   1.914   2.030
 4242SOL    HW112753   5.111   1.873   1.946
 4242SOL    HW212754   4.986   1.876   2.050
 4243SOL     OW12755   5.024   2.315   2.553
 4243SOL    HW112756   4.965   2.395   2.557
 4243SOL    HW212757   5.039   2.280   2.646
 4244SOL     OW12758   3.763   2.939   2.162
 4244SOL    HW112759   3.862   2.928   2.153
 4244SOL    HW212760   3.723   2.853   2.194
 4245SOL     OW12761   4.599   3.508   2.199
 4245SOL    HW112762   4.522   3.473   2.145
 4245SOL    HW212763   4.567   3.579   2.261
 4246SOL     OW12764   3.954   2.490   3.837
 4246SOL    HW112765   3.861   2.488   3.874
 4246SOL    HW212766   3.955   2.451   3.745
 4247SOL     OW12767   3.949   2.137   4.720
 4247SOL    HW112768   3.984   2.120   4.812
 4247SOL    HW212769   3.861   2.092   4.708
 4248SOL     OW12770   3.743   2.230   4.371
 4248SOL    HW112771   3.661   2.273   4.410
 4248SOL    HW212772   3.715   2.157   4.308
 4249SOL     OW12773   4.293   3.137   4.889
 4249SOL    HW112774   4.200   3.130   4.852
 4249SOL    HW212775   4.304   3.226   4.933
 4250SOL     OW12776   5.279   3.373   4.427
 4250SOL    HW112777   5.222   3.357   4.508
 4250SOL    HW212778   5.220   3.383   4.347
 4251SOL     OW12779   4.859   2.565   4.441
 4251SOL    HW112780   4.916   2.643   4.416
 4251SOL    HW212781   4.799   2.591   4.517
 4252SOL     OW12782   4.492   3.006   4.747
 4252SOL    HW112783   4.414   3.023   4.807
 4252SOL    HW212784   4.526   3.093   4.711
 4253SOL     OW12785   4.409   2.874   4.389
 4253SOL    HW112786   4.478   2.858   4.459
 4253SOL    HW212787   4.336   2.931   4.427
 4254SOL     OW12788   4.059   3.297   4.785
 4254SOL    HW112789   3.981   3.266   4.732
 4254SOL    HW212790   4.117   3.355   4.728
 4255SOL     OW12791   4.162   2.254   5.223
 4255SOL    HW112792   4.244   2.198   5.232
 4255SOL    HW212793   4.081   2.196   5.227
 4256SOL     OW12794   3.955   3.575   4.207
 4256SOL    HW112795   3.989   3.652   4.261
 4256SOL    HW212796   3.999   3.575   4.117
 4257SOL     OW12797   3.954   3.296   4.262
 4257SOL    HW112798   3.928   3.392   4.262
 4257SOL    HW212799   3.883   3.242   4.307
 4258SOL     OW12800   3.964   2.953   4.610
 4258SOL    HW112801   3.978   2.869   4.662
 4258SOL    HW212802   3.909   3.017   4.665
 4259SOL     OW12803   4.344   3.648   5.163
 4259SOL    HW112804   4.252   3.631   5.198
 4259SOL    HW212805   4.372   3.740   5.189
 4260SOL     OW12806   4.330   2.826   3.847
 4260SOL    HW112807   4.337   2.910   3.793
 4260SOL    HW212808   4.376   2.839   3.935
 4261SOL     OW12809   3.846   2.505   4.287
 4261SOL    HW112810   3.801   2.417   4.304
 4261SOL    HW212811   3.845   2.559   4.371
 4262SOL     OW12812   3.751   3.458   3.841
 4262SOL    HW112813   3.732   3.362   3.862
 4262SOL    HW212814   3.718   3.516   3.916
 4263SOL     OW12815   5.413   2.784   4.336
 4263SOL    HW112816   5.508   2.755   4.344
 4263SOL    HW212817   5.405   2.849   4.261
 4264SOL     OW12818   4.337   3.227   4.450
 4264SOL    HW112819   4.288   3.140   4.459
 4264SOL    HW212820   4.314   3.270   4.363
 4265SOL     OW12821   4.533   1.866   4.226
 4265SOL    HW112822   4.573   1.957   4.217
 4265SOL    HW212823   4.433   1.874   4.232
 4266SOL     OW12824   3.921   2.838   4.988
 4266SOL    HW112825   4.010   2.793   4.974
 4266SOL    HW212826   3.848   2.773   4.969
 4267SOL     OW12827   4.041   2.113   5.525
 4267SOL    HW112828   4.112   2.184   5.531
 4267SOL    HW212829   3.953   2.152   5.553
 4268SOL     OW12830   5.190   3.279   4.677
 4268SOL    HW112831   5.131   3.285   4.757
 4268SOL    HW212832   5.175   3.191   4.631
 4269SOL     OW12833   4.322   2.591   3.994
 4269SOL    HW112834   4.346   2.660   3.926
 4269SOL    HW212835   4.244   2.624   4.048
 4270SOL     OW12836   5.005   2.207   4.668
 4270SOL    HW112837   4.919   2.157   4.655
 4270SOL    HW212838   5.067   2.153   4.724
 4271SOL     OW12839   4.531   2.467   5.189
 4271SOL    HW112840   4.484   2.464   5.278
 4271SOL    HW212841   4.480   2.412   5.123
 4272SOL     OW12842   4.715   2.272   4.966
 4272SOL    HW112843   4.638   2.306   5.020
 4272SOL    HW212844   4.681   2.221   4.887
 4273SOL     OW12845   4.765   2.563   4.153
 4273SOL    HW112846   4.791   2.559   4.249
 4273SOL    HW212847   4.680   2.512   4.139
 4274SOL     OW12848   3.800   2.673   4.513
 4274SOL    HW112849   3.899   2.661   4.522
 4274SOL    HW212850   3.776   2.768   4.534
 4275SOL     OW12851   3.854   3.683   5.295
 4275SOL    HW112852   3.844   3.668   5.394
 4275SOL    HW212853   3.768   3.719   5.259
 4276SOL     OW12854   4.589   2.210   3.919
 4276SOL    HW112855   4.648   2.273   3.870
 4276SOL    HW212856   4.608   2.116   3.890
 4277SOL     OW12857   5.086   3.006   4.269
 4277SOL    HW112858   5.169   2.977   4.221
 4277SOL    HW212859   5.037   3.073   4.213
 4278SOL     OW12860   4.274   2.058   4.609
 4278SOL    HW112861   4.269   2.053   4.709
 4278SOL    HW212862   4.276   2.154   4.580
 4279SOL     OW12863   4.732   3.318   4.201
 4279SOL    HW112864   4.686   3.390   4.149
 4279SOL    HW212865   4.728   3.338   4.299
 4280SOL     OW12866   4.075   3.663   4.577
 4280SOL    HW112867   4.125   3.577   4.583
 4280SOL    HW212868   4.140   3.740   4.574
 4281SOL     OW12869   4.045   2.805   3.966
 4281SOL    HW112870   4.127   2.844   3.924
 4281SOL    HW212871   4.018   2.723   3.917
 4282SOL     OW12872   4.835   3.638   3.961
 4282SOL    HW112873   4.775   3.576   4.011
 4282SOL    HW212874   4.866   3.594   3.876
 4283SOL     OW12875   4.188   3.605   4.047
 4283SOL    HW112876   4.221   3.644   4.133
 4283SOL    HW212877   4.264   3.598   3.982
 4284SOL     OW12878   5.124   1.969   4.150
 4284SOL    HW112879   5.100   1.932   4.060
 4284SOL    HW212880   5.223   1.985   4.154
 4285SOL     OW12881   3.973   3.647   4.965
 4285SOL    HW112882   4.030   3.582   5.015
 4285SOL    HW212883   3.957   3.614   4.872
 4286SOL     OW12884   4.664   3.560   4.628
 4286SOL    HW112885   4.744   3.503   4.649
 4286SOL    HW212886   4.615   3.520   4.551
 4287SOL     OW12887   4.106   2.562   4.204
 4287SOL    HW112888   4.151   2.472   4.201
 4287SOL    HW212889   4.012   2.551   4.237
 4288SOL     OW12890   4.338   1.984   3.841
 4288SOL    HW112891   4.436   1.962   3.848
 4288SOL    HW212892   4.307   1.967   3.748
 4289SOL     OW12893   4.612   3.376   4.919
 4289SOL    HW112894   4.589   3.351   4.825
 4289SOL    HW212895   4.673   3.307   4.958
 4290SOL     OW12896   4.527   3.264   4.648
 4290SOL    HW112897   4.617   3.278   4.606
 4290SOL    HW212898   4.456   3.266   4.577
 4291SOL     OW12899   4.646   2.365   4.623
 4291SOL    HW112900   4.621   2.356   4.527
 4291SOL    HW212901   4.694   2.283   4.654
 4292SOL     OW12902   4.263   1.926   4.236
 4292SOL    HW112903   4.182   1.927   4.294
 4292SOL    HW212904   4.266   2.009   4.181
 4293SOL     OW12905   5.158   3.050   3.765
 4293SOL    HW112906   5.190   2.974   3.822
 4293SOL    HW212907   5.066   3.077   3.795
 4294SOL     OW12908   4.021   1.897   3.895
 4294SOL    HW112909   4.070   1.981   3.874
 4294SOL    HW212910   4.083   1.832   3.940
 4295SOL     OW12911   4.659   2.098   4.204
 4295SOL    HW112912   4.611   2.139   4.126
 4295SOL    HW212913   4.758   2.096   4.185
 4296SOL     OW12914   4.951   3.432   4.517
 4296SOL    HW112915   4.972   3.506   4.452
 4296SOL    HW212916   5.019   3.432   4.590
 4297SOL     OW12917   4.183   3.014   4.465
 4297SOL    HW112918   4.112   2.987   4.530
 4297SOL    HW212919   4.157   2.986   4.372
 4298SOL     OW12920   4.995   3.659   4.315
 4298SOL    HW112921   5.039   3.723   4.251
 4298SOL    HW212922   4.945   3.711   4.385
 4299SOL     OW12923   4.756   2.411   3.740
 4299SOL    HW112924   4.715   2.493   3.701
 4299SOL    HW212925   4.820   2.437   3.813
 4300SOL     OW12926   3.802   2.418   5.110
 4300SOL    HW112927   3.894   2.417   5.069
 4300SOL    HW212928   3.796   2.492   5.177
 4301SOL     OW12929   4.285   2.084   4.871
 4301SOL    HW112930   4.323   2.000   4.908
 4301SOL    HW212931   4.197   2.103   4.915
 4302SOL     OW12932   4.590   2.316   4.366
 4302SOL    HW112933   4.558   2.388   4.304
 4302SOL    HW212934   4.614   2.235   4.313
 4303SOL     OW12935   4.741   1.901   4.477
 4303SOL    HW112936   4.669   1.906   4.408
 4303SOL    HW212937   4.717   1.832   4.546
 4304SOL     OW12938   5.153   3.035   4.591
 4304SOL    HW112939   5.098   2.951   4.584
 4304SOL    HW212940   5.179   3.064   4.499
 4305SOL     OW12941   4.212   3.247   3.898
 4305SOL    HW112942   4.125   3.232   3.945
 4305SOL    HW212943   4.195   3.273   3.803
 4306SOL     OW12944   5.114   2.437   3.802
 4306SOL    HW112945   5.060   2.416   3.883
 4306SOL    HW212946   5.205   2.396   3.811
 4307SOL     OW12947   4.251   2.118   4.052
 4307SOL    HW112948   4.278   2.059   3.977
 4307SOL    HW212949   4.251   2.213   4.021
 4308SOL     OW12950   4.788   3.209   5.064
 4308SOL    HW112951   4.708   3.186   5.119
 4308SOL    HW212952   4.871   3.183   5.113
 4309SOL     OW12953   4.835   3.057   4.824
 4309SOL    HW112954   4.795   3.101   4.905
 4309SOL    HW212955   4.794   3.094   4.741
 4310SOL     OW12956   4.639   1.951   5.126
 4310SOL    HW112957   4.664   1.931   5.031
 4310SOL    HW212958   4.711   2.007   5.168
 4311SOL     OW12959   4.429   2.912   4.092
 4311SOL    HW112960   4.415   2.919   4.191
 4311SOL    HW212961   4.513   2.861   4.074
 4312SOL     OW12962   4.134   2.675   4.975
 4312SOL    HW112963   4.220   2.687   5.025
 4312SOL    HW212964   4.092   2.588   5.002
 4313SOL     OW12965   4.998   2.248   4.986
 4313SOL    HW112966   5.019   2.322   5.050
 4313SOL    HW212967   4.909   2.265   4.943
 4314SOL     OW12968   3.788   3.426   5.055
 4314SOL    HW112969   3.742   3.508   5.021
 4314SOL    HW212970   3.886   3.445   5.064
 4315SOL     OW12971   4.091   2.962   4.225
 4315SOL    HW112972   4.084   3.045   4.169
 4315SOL    HW212973   4.095   2.882   4.165
 4316SOL     OW12974   4.290   2.399   4.589
 4316SOL    HW112975   4.302   2.465   4.515
 4316SOL    HW212976   4.336   2.433   4.672
 4317SOL     OW12977   4.976   3.210   4.112
 4317SOL    HW112978   5.026   3.287   4.152
 4317SOL    HW212979   4.881   3.212   4.144
 4318SOL     OW12980   4.996   3.307   4.866
 4318SOL    HW112981   5.043   3.320   4.953
 4318SOL    HW212982   4.930   3.233   4.875
 4319SOL     OW12983   4.078   3.372   5.053
 4319SOL    HW112984   4.057   3.328   4.966
 4319SOL    HW212985   4.175   3.398   5.056
 4320SOL     OW12986   4.126   2.613   5.322
 4320SOL    HW112987   4.194   2.668   5.275
 4320SOL    HW212988   4.166   2.525   5.349
 4321SOL     OW12989   5.311   2.641   5.394
 4321SOL    HW112990   5.219   2.679   5.389
 4321SOL    HW212991   5.371   2.688   5.329
 4322SOL     OW12992   4.297   2.732   4.753
 4322SOL    HW112993   4.341   2.821   4.744
 4322SOL    HW212994   4.234   2.732   4.830
 4323SOL     OW12995   5.084   2.724   4.769
 4323SOL    HW112996   5.009   2.724   4.703
 4323SOL    HW212997   5.121   2.632   4.778
 4324SOL     OW12998   4.933   2.387   3.999
 4324SOL    HW112999   4.946   2.303   4.053
 4324SOL    HW213000   4.904   2.461   4.059
 4325SOL     OW13001   4.031   2.075   4.955
 4325SOL    HW113002   4.008   2.112   5.045
 4325SOL    HW213003   4.001   1.980   4.949
 4326SOL     OW13004   3.761   3.172   5.006
 4326SOL    HW113005   3.814   3.123   5.074
 4326SOL    HW213006   3.783   3.270   5.011
 4327SOL     OW13007   4.456   2.496   4.788
 4327SOL    HW113008   4.515   2.470   4.712
 4327SOL    HW213009   4.428   2.592   4.777
 4328SOL     OW13010   4.031   1.925   4.342
 4328SOL    HW113011   4.020   2.019   4.375
 4328SOL    HW213012   4.026   1.862   4.419
 4329SOL     OW13013   5.346   2.229   4.098
 4329SOL    HW113014   5.348   2.153   4.162
 4329SOL    HW213015   5.298   2.306   4.138
 4330SOL     OW13016   4.747   2.628   4.690
 4330SOL    HW113017   4.762   2.649   4.786
 4330SOL    HW213018   4.717   2.533   4.681
 4331SOL     OW13019   4.704   3.435   5.424
 4331SOL    HW113020   4.684   3.479   5.336
 4331SOL    HW213021   4.743   3.344   5.408
 4332SOL     OW13022   5.027   2.700   3.766
 4332SOL    HW113023   5.061   2.607   3.781
 4332SOL    HW213024   5.045   2.727   3.671
 4333SOL     OW13025   4.792   3.195   4.573
 4333SOL    HW113026   4.799   3.111   4.518
 4333SOL    HW213027   4.854   3.264   4.537
 4334SOL     OW13028   4.043   2.672   4.673
 4334SOL    HW113029   4.136   2.708   4.678
 4334SOL    HW213030   4.037   2.587   4.725
 4335SOL     OW13031   4.063   2.371   4.730
 4335SOL    HW113032   4.011   2.288   4.713
 4335SOL    HW213033   4.140   2.376   4.666
 4336SOL     OW13034   4.862   2.242   5.402
 4336SOL    HW113035   4.817   2.305   5.466
 4336SOL    HW213036   4.955   2.273   5.385
 4337SOL     OW13037   4.884   2.069   5.201
 4337SOL    HW113038   4.884   2.133   5.278
 4337SOL    HW213039   4.912   2.117   5.118
 4338SOL     OW13040   3.732   3.188   3.924
 4338SOL    HW113041   3.639   3.209   3.893
 4338SOL    HW213042   3.742   3.089   3.937
 4339SOL     OW13043   3.812   3.663   4.651
 4339SOL    HW113044   3.770   3.577   4.624
 4339SOL    HW213045   3.906   3.666   4.617
 4340SOL     OW13046   4.228   3.430   4.634
 4340SOL    HW113047   4.294   3.504   4.643
 4340SOL    HW213048   4.272   3.351   4.592
 4341SOL     OW13049   4.726   2.658   4.962
 4341SOL    HW113050   4.767   2.626   5.048
 4341SOL    HW213051   4.630   2.631   4.959
 4342SOL     OW13052   3.764   2.406   4.838
 4342SOL    HW113053   3.849   2.373   4.797
 4342SOL    HW213054   3.777   2.421   4.936
 4343SOL     OW13055   4.539   2.434   4.049
 4343SOL    HW113056   4.546   2.345   4.003
 4343SOL    HW213057   4.445   2.468   4.041
 4344SOL     OW13058   4.395   2.326   4.993
 4344SOL    HW113059   4.361   2.237   4.963
 4344SOL    HW213060   4.421   2.380   4.913
 4345SOL     OW13061   4.654   3.540   5.189
 4345SOL    HW113062   4.630   3.522   5.094
 4345SOL    HW213063   4.684   3.634   5.199
 4346SOL     OW13064   4.197   2.362   3.915
 4346SOL    HW113065   4.258   2.442   3.919
 4346SOL    HW213066   4.102   2.393   3.922
 4347SOL     OW13067   3.883   2.999   5.190
 4347SOL    HW113068   3.905   2.938   5.266
 4347SOL    HW213069   3.893   2.950   5.104
 4348SOL     OW13070   5.071   2.921   4.958
 4348SOL    HW113071   5.095   2.858   4.884
 4348SOL    HW213072   4.981   2.961   4.940
 4349SOL     OW13073   5.026   2.717   4.033
 4349SOL    HW113074   4.940   2.686   4.075
 4349SOL    HW213075   5.022   2.703   3.934
 4350SOL     OW13076   4.976   3.593   4.852
 4350SOL    HW113077   5.060   3.598   4.798
 4350SOL    HW213078   4.953   3.497   4.870
 4351SOL     OW13079   3.807   3.120   4.746
 4351SOL    HW113080   3.802   3.119   4.846
 4351SOL    HW213081   3.724   3.079   4.708
 4352SOL     OW13082   5.450   1.997   4.247
 4352SOL    HW113083   5.523   1.980   4.180
 4352SOL    HW213084   5.419   1.910   4.285
 4353SOL     OW13085   5.112   3.435   4.201
 4353SOL    HW113086   5.179   3.447   4.127
 4353SOL    HW213087   5.072   3.524   4.224
 4354SOL     OW13088   5.004   2.789   4.396
 4354SOL    HW113089   5.064   2.708   4.398
 4354SOL    HW213090   5.044   2.858   4.336
 4355SOL     OW13091   4.396   3.478   3.878
 4355SOL    HW113092   4.405   3.488   3.779
 4355SOL    HW213093   4.356   3.389   3.899
 4356SOL     OW13094   3.987   2.188   4.444
 4356SOL    HW113095   3.908   2.239   4.410
 4356SOL    HW213096   3.978   2.173   4.542
 4357SOL     OW13097   4.918   3.474   3.755
 4357SOL    HW113098   4.924   3.381   3.792
 4357SOL    HW213099   4.859   3.474   3.675
 4358SOL     OW13100   4.546   2.864   5.096
 4358SOL    HW113101   4.586   2.863   5.004
 4358SOL    HW213102   4.556   2.956   5.136
 4359SOL     OW13103   4.640   2.772   4.015
 4359SOL    HW113104   4.703   2.810   3.947
 4359SOL    HW213105   4.680   2.689   4.054
 4360SOL     OW13106   4.096   3.150   5.214
 4360SOL    HW113107   4.083   3.243   5.180
 4360SOL    HW213108   4.012   3.098   5.201
 4361SOL     OW13109   4.763   2.960   4.420
 4361SOL    HW113110   4.693   2.913   4.474
 4361SOL    HW213111   4.822   2.892   4.377
 4362SOL     OW13112   4.738   2.098   4.695
 4362SOL    HW113113   4.730   2.062   4.602
 4362SOL    HW213114   4.736   2.022   4.760
 4363SOL     OW13115   4.314   3.349   4.215
 4363SOL    HW113116   4.356   3.291   4.145
 4363SOL    HW213117   4.270   3.428   4.171
 4364SOL     OW13118   3.979   3.210   4.014
 4364SOL    HW113119   3.883   3.211   3.987
 4364SOL    HW213120   3.991   3.263   4.098
 4365SOL     OW13121   3.799   2.207   3.757
 4365SOL    HW113122   3.707   2.179   3.728
 4365SOL    HW213123   3.830   2.284   3.701
 4366SOL     OW13124   5.164   2.718   5.122
 4366SOL    HW113125   5.107   2.770   5.059
 4366SOL    HW213126   5.260   2.730   5.098
 4367SOL     OW13127   3.796   2.028   4.042
 4367SOL    HW113128   3.779   2.111   3.988
 4367SOL    HW213129   3.886   1.991   4.020
 4368SOL     OW13130   4.907   3.197   3.843
 4368SOL    HW113131   4.808   3.186   3.845
 4368SOL    HW213132   4.941   3.212   3.936
 4369SOL     OW13133   4.337   2.704   5.155
 4369SOL    HW113134   4.393   2.785   5.138
 4369SOL    HW213135   4.396   2.624   5.158
 4370SOL     OW13136   4.114   3.603   5.284
 4370SOL    HW113137   4.023   3.644   5.282
 4370SOL    HW213138   4.107   3.509   5.316
 4371SOL     OW13139   4.949   2.187   4.173
 4371SOL    HW113140   5.014   2.113   4.162
 4371SOL    HW213141   4.969   2.237   4.257
 4372SOL     OW13142   4.318   2.607   4.376
 4372SOL    HW113143   4.368   2.692   4.357
 4372SOL    HW213144   4.230   2.609   4.328
 4373SOL     OW13145   4.583   3.236   3.740
 4373SOL    HW113146   4.537   3.251   3.828
 4373SOL    HW213147   4.627   3.321   3.710
 4374SOL     OW13148   4.385   3.652   4.677
 4374SOL    HW113149   4.339   3.740   4.664
 4374SOL    HW213150   4.484   3.664   4.670
 4375SOL     OW13151   4.583   2.818   4.585
 4375SOL    HW113152   4.637   2.749   4.633
 4375SOL    HW213153   4.551   2.887   4.651
 4376SOL     OW13154   4.807   2.846   3.811
 4376SOL    HW113155   4.784   2.899   3.729
 4376SOL    HW213156   4.888   2.790   3.792
 4377SOL     OW13157   3.803   3.102   4.377
 4377SOL    HW113158   3.802   3.055   4.465
 4377SOL    HW213159   3.885   3.074   4.326
 4378SOL     OW13160   4.152   2.286   4.244
 4378SOL    HW113161   4.182   2.214   4.182
 4378SOL    HW213162   4.113   2.246   4.327
 4379SOL     OW13163   5.429   3.349   4.828
 4379SOL    HW113164   5.336   3.324   4.801
 4379SOL    HW213165   5.455   3.299   4.910
 4380SOL     OW13166   4.041   2.409   5.004
 4380SOL    HW113167   4.079   2.350   5.076
 4380SOL    HW213168   4.081   2.383   4.916
 4381SOL     OW13169   4.536   3.448   4.411
 4381SOL    HW113170   4.568   3.458   4.317
 4381SOL    HW213171   4.457   3.386   4.413
 4382SOL     OW13172   5.148   2.076   4.836
 4382SOL    HW113173   5.200   2.011   4.891
 4382SOL    HW213174   5.099   2.139   4.897
 4383SOL     OW13175   4.725   1.896   4.878
 4383SOL    HW113176   4.662   1.824   4.847
 4383SOL    HW213177   4.818   1.860   4.878
 4384SOL     OW13178   4.494   3.192   4.025
 4384SOL    HW113179   4.448   3.105   4.042
 4384SOL    HW213180   4.585   3.189   4.066
 4385SOL     OW13181   4.342   3.429   5.008
 4385SOL    HW113182   4.337   3.511   5.065
 4385SOL    HW213183   4.431   3.426   4.963
 4386SOL     OW13184   5.076   1.914   3.892
 4386SOL    HW113185   5.111   1.873   3.808
 4386SOL    HW213186   4.986   1.876   3.912
 4387SOL     OW13187   5.024   2.315   4.415
 4387SOL    HW113188   4.965   2.395   4.419
 4387SOL    HW213189   5.039   2.280   4.508
 4388SOL     OW13190   3.763   2.939   4.024
 4388SOL    HW113191   3.862   2.928   4.015
 4388SOL    HW213192   3.723   2.853   4.056
 4389SOL     OW13193   4.599   3.508   4.061
 4389SOL    HW113194   4.522   3.473   4.007
 4389SOL    HW213195   4.567   3.579   4.123
 4390SOL     OW13196   3.954   4.352   0.113
 4390SOL    HW113197   3.861   4.350   0.150
 4390SOL    HW213198   3.955   4.313   0.021
 4391SOL     OW13199   3.949   3.999   0.996
 4391SOL    HW113200   3.984   3.982   1.088
 4391SOL    HW213201   3.861   3.954   0.984
 4392SOL     OW13202   3.743   4.092   0.647
 4392SOL    HW113203   3.661   4.135   0.686
 4392SOL    HW213204   3.715   4.019   0.584
 4393SOL     OW13205   4.293   4.999   1.165
 4393SOL    HW113206   4.200   4.992   1.128
 4393SOL    HW213207   4.304   5.088   1.209
 4394SOL     OW13208   5.279   5.235   0.703
 4394SOL    HW113209   5.222   5.219   0.784
 4394SOL    HW213210   5.220   5.245   0.623
 4395SOL     OW13211   4.859   4.427   0.717
 4395SOL    HW113212   4.916   4.505   0.692
 4395SOL    HW213213   4.799   4.453   0.793
 4396SOL     OW13214   4.492   4.868   1.023
 4396SOL    HW113215   4.414   4.885   1.083
 4396SOL    HW213216   4.526   4.955   0.987
 4397SOL     OW13217   4.574   4.522   1.823
 4397SOL    HW113218   4.570   4.598   1.888
 4397SOL    HW213219   4.596   4.558   1.732
 4398SOL     OW13220   4.409   4.736   0.665
 4398SOL    HW113221   4.478   4.720   0.735
 4398SOL    HW213222   4.336   4.793   0.703
 4399SOL     OW13223   4.410   4.885   1.803
 4399SOL    HW113224   4.470   4.964   1.817
 4399SOL    HW213225   4.324   4.916   1.762
 4400SOL     OW13226   4.059   5.159   1.061
 4400SOL    HW113227   3.981   5.128   1.008
 4400SOL    HW213228   4.117   5.217   1.004
 4401SOL     OW13229   4.162   4.116   1.499
 4401SOL    HW113230   4.244   4.060   1.508
 4401SOL    HW213231   4.081   4.058   1.503
 4402SOL     OW13232   3.955   5.437   0.483
 4402SOL    HW113233   3.989   5.514   0.537
 4402SOL    HW213234   3.999   5.437   0.393
 4403SOL     OW13235   4.851   5.065   1.690
 4403SOL    HW113236   4.898   5.065   1.778
 4403SOL    HW213237   4.803   4.978   1.679
 4404SOL     OW13238   3.954   5.158   0.538
 4404SOL    HW113239   3.928   5.254   0.538
 4404SOL    HW213240   3.883   5.104   0.583
 4405SOL     OW13241   3.964   4.815   0.886
 4405SOL    HW113242   3.978   4.731   0.938
 4405SOL    HW213243   3.909   4.879   0.941
 4406SOL     OW13244   4.330   4.688   0.123
 4406SOL    HW113245   4.337   4.772   0.069
 4406SOL    HW213246   4.376   4.701   0.211
 4407SOL     OW13247   3.846   4.367   0.563
 4407SOL    HW113248   3.801   4.279   0.580
 4407SOL    HW213249   3.845   4.421   0.647
 4408SOL     OW13250   3.751   5.320   0.117
 4408SOL    HW113251   3.732   5.224   0.138
 4408SOL    HW213252   3.718   5.378   0.192
 4409SOL     OW13253   5.413   4.646   0.612
 4409SOL    HW113254   5.508   4.617   0.620
 4409SOL    HW213255   5.405   4.711   0.537
 4410SOL     OW13256   3.837   4.461   1.597
 4410SOL    HW113257   3.925   4.448   1.642
 4410SOL    HW213258   3.824   4.558   1.575
 4411SOL     OW13259   4.337   5.089   0.726
 4411SOL    HW113260   4.288   5.002   0.735
 4411SOL    HW213261   4.314   5.132   0.639
 4412SOL     OW13262   5.017   4.952   1.423
 4412SOL    HW113263   5.054   4.879   1.365
 4412SOL    HW213264   5.069   4.957   1.508
 4413SOL     OW13265   4.533   3.728   0.502
 4413SOL    HW113266   4.573   3.819   0.493
 4413SOL    HW213267   4.433   3.736   0.508
 4414SOL     OW13268   3.921   4.700   1.264
 4414SOL    HW113269   4.010   4.655   1.250
 4414SOL    HW213270   3.848   4.635   1.245
 4415SOL     OW13271   4.041   3.975   1.801
 4415SOL    HW113272   4.112   4.046   1.807
 4415SOL    HW213273   3.953   4.014   1.829
 4416SOL     OW13274   5.190   5.141   0.953
 4416SOL    HW113275   5.131   5.147   1.033
 4416SOL    HW213276   5.175   5.053   0.907
 4417SOL     OW13277   4.322   4.453   0.270
 4417SOL    HW113278   4.346   4.522   0.202
 4417SOL    HW213279   4.244   4.486   0.324
 4418SOL     OW13280   5.005   4.069   0.944
 4418SOL    HW113281   4.919   4.019   0.931
 4418SOL    HW213282   5.067   4.015   1.000
 4419SOL     OW13283   4.531   4.329   1.465
 4419SOL    HW113284   4.484   4.326   1.554
 4419SOL    HW213285   4.480   4.274   1.399
 4420SOL     OW13286   5.118   4.193   1.674
 4420SOL    HW113287   5.098   4.236   1.762
 4420SOL    HW213288   5.196   4.131   1.683
 4421SOL     OW13289   4.697   4.614   1.572
 4421SOL    HW113290   4.743   4.530   1.543
 4421SOL    HW213291   4.641   4.648   1.497
 4422SOL     OW13292   4.715   4.134   1.242
 4422SOL    HW113293   4.638   4.168   1.296
 4422SOL    HW213294   4.681   4.083   1.163
 4423SOL     OW13295   4.765   4.425   0.429
 4423SOL    HW113296   4.791   4.421   0.525
 4423SOL    HW213297   4.680   4.374   0.415
 4424SOL     OW13298   3.800   4.535   0.789
 4424SOL    HW113299   3.899   4.523   0.798
 4424SOL    HW213300   3.776   4.630   0.810
 4425SOL     OW13301   4.589   4.072   0.195
 4425SOL    HW113302   4.648   4.135   0.146
 4425SOL    HW213303   4.608   3.978   0.166
 4426SOL     OW13304   5.086   4.868   0.545
 4426SOL    HW113305   5.169   4.839   0.497
 4426SOL    HW213306   5.037   4.935   0.489
 4427SOL     OW13307   4.274   3.920   0.885
 4427SOL    HW113308   4.269   3.915   0.985
 4427SOL    HW213309   4.276   4.016   0.856
 4428SOL     OW13310   4.732   5.180   0.477
 4428SOL    HW113311   4.686   5.252   0.425
 4428SOL    HW213312   4.728   5.200   0.575
 4429SOL     OW13313   4.951   5.274   1.506
 4429SOL    HW113314   4.957   5.197   1.570
 4429SOL    HW213315   4.899   5.248   1.426
 4430SOL     OW13316   4.045   4.667   0.242
 4430SOL    HW113317   4.127   4.706   0.200
 4430SOL    HW213318   4.018   4.585   0.193
 4431SOL     OW13319   4.185   4.990   1.727
 4431SOL    HW113320   4.135   4.991   1.641
 4431SOL    HW213321   4.122   4.972   1.803
 4432SOL     OW13322   4.835   5.500   0.237
 4432SOL    HW113323   4.775   5.438   0.287
 4432SOL    HW213324   4.866   5.456   0.152
 4433SOL     OW13325   3.926   4.009   1.498
 4433SOL    HW113326   3.846   4.069   1.485
 4433SOL    HW213327   3.916   3.960   1.584
 4434SOL     OW13328   5.124   3.831   0.426
 4434SOL    HW113329   5.100   3.794   0.336
 4434SOL    HW213330   5.223   3.847   0.430
 4435SOL     OW13331   4.106   4.424   0.480
 4435SOL    HW113332   4.151   4.334   0.477
 4435SOL    HW213333   4.012   4.413   0.513
 4436SOL     OW13334   4.338   3.846   0.117
 4436SOL    HW113335   4.436   3.824   0.124
 4436SOL    HW213336   4.307   3.829   0.024
 4437SOL     OW13337   4.505   3.988   1.749
 4437SOL    HW113338   4.572   3.927   1.792
 4437SOL    HW213339   4.432   4.007   1.814
 4438SOL     OW13340   5.075   4.314   1.433
 4438SOL    HW113341   5.103   4.271   1.518
 4438SOL    HW213342   5.100   4.410   1.434
 4439SOL     OW13343   4.527   5.126   0.924
 4439SOL    HW113344   4.617   5.140   0.882
 4439SOL    HW213345   4.456   5.128   0.853
 4440SOL     OW13346   4.646   4.227   0.899
 4440SOL    HW113347   4.621   4.218   0.803
 4440SOL    HW213348   4.694   4.145   0.930
 4441SOL     OW13349   4.263   3.788   0.512
 4441SOL    HW113350   4.182   3.789   0.570
 4441SOL    HW213351   4.266   3.871   0.457
 4442SOL     OW13352   5.158   4.912   0.041
 4442SOL    HW113353   5.190   4.836   0.098
 4442SOL    HW213354   5.066   4.939   0.071
 4443SOL     OW13355   4.021   3.759   0.171
 4443SOL    HW113356   4.070   3.843   0.150
 4443SOL    HW213357   4.083   3.694   0.216
 4444SOL     OW13358   4.659   3.960   0.480
 4444SOL    HW113359   4.611   4.001   0.402
 4444SOL    HW213360   4.758   3.958   0.461
 4445SOL     OW13361   4.800   4.407   1.464
 4445SOL    HW113362   4.720   4.346   1.467
 4445SOL    HW213363   4.881   4.354   1.440
 4446SOL     OW13364   4.951   5.294   0.793
 4446SOL    HW113365   4.972   5.368   0.728
 4446SOL    HW213366   5.019   5.294   0.866
 4447SOL     OW13367   4.183   4.876   0.741
 4447SOL    HW113368   4.112   4.849   0.806
 4447SOL    HW213369   4.157   4.848   0.648
 4448SOL     OW13370   4.756   4.273   0.016
 4448SOL    HW113371   4.715   4.355  -0.023
 4448SOL    HW213372   4.820   4.299   0.089
 4449SOL     OW13373   3.802   4.280   1.386
 4449SOL    HW113374   3.894   4.279   1.345
 4449SOL    HW213375   3.796   4.354   1.453
 4450SOL     OW13376   4.285   3.946   1.147
 4450SOL    HW113377   4.323   3.862   1.184
 4450SOL    HW213378   4.197   3.965   1.191
 4451SOL     OW13379   4.590   4.178   0.642
 4451SOL    HW113380   4.558   4.250   0.580
 4451SOL    HW213381   4.614   4.097   0.589
 4452SOL     OW13382   4.741   3.763   0.753
 4452SOL    HW113383   4.669   3.768   0.684
 4452SOL    HW213384   4.717   3.694   0.822
 4453SOL     OW13385   5.153   4.897   0.867
 4453SOL    HW113386   5.098   4.813   0.860
 4453SOL    HW213387   5.179   4.926   0.775
 4454SOL     OW13388   4.212   5.109   0.174
 4454SOL    HW113389   4.125   5.094   0.221
 4454SOL    HW213390   4.195   5.135   0.079
 4455SOL     OW13391   5.114   4.299   0.078
 4455SOL    HW113392   5.060   4.278   0.159
 4455SOL    HW213393   5.205   4.258   0.087
 4456SOL     OW13394   4.251   3.980   0.328
 4456SOL    HW113395   4.278   3.921   0.253
 4456SOL    HW213396   4.251   4.075   0.297
 4457SOL     OW13397   4.788   5.071   1.340
 4457SOL    HW113398   4.708   5.048   1.395
 4457SOL    HW213399   4.871   5.045   1.389
 4458SOL     OW13400   4.835   4.919   1.100
 4458SOL    HW113401   4.795   4.963   1.181
 4458SOL    HW213402   4.794   4.956   1.017
 4459SOL     OW13403   4.639   3.813   1.402
 4459SOL    HW113404   4.664   3.793   1.307
 4459SOL    HW213405   4.711   3.869   1.444
 4460SOL     OW13406   4.704   4.840   1.719
 4460SOL    HW113407   4.605   4.846   1.729
 4460SOL    HW213408   4.727   4.760   1.663
 4461SOL     OW13409   4.429   4.774   0.368
 4461SOL    HW113410   4.415   4.781   0.467
 4461SOL    HW213411   4.513   4.723   0.350
 4462SOL     OW13412   4.134   4.537   1.251
 4462SOL    HW113413   4.220   4.549   1.301
 4462SOL    HW213414   4.092   4.450   1.278
 4463SOL     OW13415   4.998   4.110   1.262
 4463SOL    HW113416   5.019   4.184   1.326
 4463SOL    HW213417   4.909   4.127   1.219
 4464SOL     OW13418   4.091   4.824   0.501
 4464SOL    HW113419   4.084   4.907   0.445
 4464SOL    HW213420   4.095   4.744   0.441
 4465SOL     OW13421   4.290   4.261   0.865
 4465SOL    HW113422   4.302   4.327   0.791
 4465SOL    HW213423   4.336   4.295   0.948
 4466SOL     OW13424   4.976   5.072   0.388
 4466SOL    HW113425   5.026   5.149   0.428
 4466SOL    HW213426   4.881   5.074   0.420
 4467SOL     OW13427   4.996   5.169   1.142
 4467SOL    HW113428   5.043   5.182   1.229
 4467SOL    HW213429   4.930   5.095   1.151
 4468SOL     OW13430   4.078   5.234   1.329
 4468SOL    HW113431   4.057   5.190   1.242
 4468SOL    HW213432   4.175   5.260   1.332
 4469SOL     OW13433   4.126   4.475   1.598
 4469SOL    HW113434   4.194   4.530   1.551
 4469SOL    HW213435   4.166   4.387   1.625
 4470SOL     OW13436   4.737   3.829   1.770
 4470SOL    HW113437   4.743   3.914   1.718
 4470SOL    HW213438   4.769   3.753   1.713
 4471SOL     OW13439   4.228   3.774   1.740
 4471SOL    HW113440   4.186   3.717   1.670
 4471SOL    HW213441   4.162   3.843   1.772
 4472SOL     OW13442   4.297   4.594   1.029
 4472SOL    HW113443   4.341   4.683   1.020
 4472SOL    HW213444   4.234   4.594   1.106
 4473SOL     OW13445   5.084   4.586   1.045
 4473SOL    HW113446   5.009   4.586   0.979
 4473SOL    HW213447   5.121   4.494   1.054
 4474SOL     OW13448   4.933   4.249   0.275
 4474SOL    HW113449   4.946   4.165   0.329
 4474SOL    HW213450   4.904   4.323   0.335
 4475SOL     OW13451   4.031   3.937   1.231
 4475SOL    HW113452   4.008   3.974   1.321
 4475SOL    HW213453   4.001   3.842   1.225
 4476SOL     OW13454   3.761   5.034   1.282
 4476SOL    HW113455   3.814   4.985   1.350
 4476SOL    HW213456   3.783   5.132   1.287
 4477SOL     OW13457   4.456   4.358   1.064
 4477SOL    HW113458   4.515   4.332   0.988
 4477SOL    HW213459   4.428   4.454   1.053
 4478SOL     OW13460   4.031   3.787   0.618
 4478SOL    HW113461   4.020   3.881   0.651
 4478SOL    HW213462   4.026   3.724   0.695
 4479SOL     OW13463   5.346   4.091   0.374
 4479SOL    HW113464   5.348   4.015   0.438
 4479SOL    HW213465   5.298   4.168   0.414
 4480SOL     OW13466   4.747   4.490   0.966
 4480SOL    HW113467   4.762   4.511   1.062
 4480SOL    HW213468   4.717   4.395   0.957
 4481SOL     OW13469   4.074   4.622   1.804
 4481SOL    HW113470   4.150   4.666   1.852
 4481SOL    HW213471   4.109   4.575   1.722
 4482SOL     OW13472   5.027   4.562   0.042
 4482SOL    HW113473   5.061   4.469   0.057
 4482SOL    HW213474   5.045   4.589  -0.053
 4483SOL     OW13475   4.792   5.057   0.849
 4483SOL    HW113476   4.799   4.973   0.794
 4483SOL    HW213477   4.854   5.126   0.813
 4484SOL     OW13478   4.043   4.534   0.949
 4484SOL    HW113479   4.136   4.570   0.954
 4484SOL    HW213480   4.037   4.449   1.001
 4485SOL     OW13481   4.063   4.233   1.006
 4485SOL    HW113482   4.011   4.150   0.989
 4485SOL    HW213483   4.140   4.238   0.942
 4486SOL     OW13484   4.862   4.104   1.678
 4486SOL    HW113485   4.817   4.167   1.742
 4486SOL    HW213486   4.955   4.135   1.661
 4487SOL     OW13487   4.884   3.931   1.477
 4487SOL    HW113488   4.884   3.995   1.554
 4487SOL    HW213489   4.912   3.979   1.394
 4488SOL     OW13490   3.732   5.050   0.200
 4488SOL    HW113491   3.639   5.071   0.169
 4488SOL    HW213492   3.742   4.951   0.213
 4489SOL     OW13493   4.726   4.520   1.238
 4489SOL    HW113494   4.767   4.488   1.324
 4489SOL    HW213495   4.630   4.493   1.235
 4490SOL     OW13496   3.764   4.268   1.114
 4490SOL    HW113497   3.849   4.235   1.073
 4490SOL    HW213498   3.777   4.283   1.212
 4491SOL     OW13499   3.913   4.244   1.722
 4491SOL    HW113500   3.972   4.204   1.652
 4491SOL    HW213501   3.855   4.315   1.681
 4492SOL     OW13502   5.093   4.674   1.660
 4492SOL    HW113503   5.132   4.763   1.680
 4492SOL    HW213504   5.103   4.654   1.563
 4493SOL     OW13505   4.539   4.296   0.325
 4493SOL    HW113506   4.546   4.207   0.279
 4493SOL    HW213507   4.445   4.330   0.317
 4494SOL     OW13508   3.976   5.288   1.744
 4494SOL    HW113509   3.946   5.345   1.820
 4494SOL    HW213510   3.969   5.191   1.770
 4495SOL     OW13511   4.395   4.188   1.269
 4495SOL    HW113512   4.361   4.099   1.239
 4495SOL    HW213513   4.421   4.242   1.189
 4496SOL     OW13514   4.197   4.224   0.191
 4496SOL    HW113515   4.258   4.304   0.195
 4496SOL    HW213516   4.102   4.255   0.198
 4497SOL     OW13517   3.883   4.861   1.466
 4497SOL    HW113518   3.905   4.800   1.542
 4497SOL    HW213519   3.893   4.812   1.380
 4498SOL     OW13520   5.071   4.783   1.234
 4498SOL    HW113521   5.095   4.720   1.160
 4498SOL    HW213522   4.981   4.823   1.216
 4499SOL     OW13523   5.026   4.579   0.309
 4499SOL    HW113524   4.940   4.548   0.351
 4499SOL    HW213525   5.022   4.565   0.210
 4500SOL     OW13526   3.807   4.982   1.022
 4500SOL    HW113527   3.802   4.981   1.122
 4500SOL    HW213528   3.724   4.941   0.984
 4501SOL     OW13529   4.627   3.810   0.133
 4501SOL    HW113530   4.678   3.811   0.047
 4501SOL    HW213531   4.683   3.768   0.204
 4502SOL     OW13532   5.450   3.859   0.523
 4502SOL    HW113533   5.523   3.842   0.456
 4502SOL    HW213534   5.419   3.772   0.561
 4503SOL     OW13535   5.004   4.651   0.672
 4503SOL    HW113536   5.064   4.570   0.674
 4503SOL    HW213537   5.044   4.720   0.612
 4504SOL     OW13538   4.554   4.997   1.422
 4504SOL    HW113539   4.549   5.030   1.517
 4504SOL    HW213540   4.468   5.016   1.376
 4505SOL     OW13541   3.987   4.050   0.720
 4505SOL    HW113542   3.908   4.101   0.686
 4505SOL    HW213543   3.978   4.035   0.818
 4506SOL     OW13544   4.918   5.336   0.031
 4506SOL    HW113545   4.924   5.243   0.068
 4506SOL    HW213546   4.859   5.336  -0.049
 4507SOL     OW13547   4.546   4.726   1.372
 4507SOL    HW113548   4.586   4.725   1.280
 4507SOL    HW213549   4.556   4.818   1.412
 4508SOL     OW13550   4.640   4.634   0.291
 4508SOL    HW113551   4.703   4.672   0.223
 4508SOL    HW213552   4.680   4.551   0.330
 4509SOL     OW13553   4.096   5.012   1.490
 4509SOL    HW113554   4.083   5.105   1.456
 4509SOL    HW213555   4.012   4.960   1.477
 4510SOL     OW13556   4.763   4.822   0.696
 4510SOL    HW113557   4.693   4.775   0.750
 4510SOL    HW213558   4.822   4.754   0.653
 4511SOL     OW13559   4.738   3.960   0.971
 4511SOL    HW113560   4.730   3.924   0.878
 4511SOL    HW213561   4.736   3.884   1.036
 4512SOL     OW13562   3.979   5.072   0.290
 4512SOL    HW113563   3.883   5.073   0.263
 4512SOL    HW213564   3.991   5.125   0.374
 4513SOL     OW13565   3.829   4.737   1.726
 4513SOL    HW113566   3.752   4.704   1.780
 4513SOL    HW213567   3.914   4.707   1.768
 4514SOL     OW13568   4.396   3.927   1.489
 4514SOL    HW113569   4.486   3.911   1.449
 4514SOL    HW213570   4.404   3.932   1.588
 4515SOL     OW13571   5.164   4.580   1.398
 4515SOL    HW113572   5.107   4.632   1.335
 4515SOL    HW213573   5.260   4.592   1.374
 4516SOL     OW13574   3.796   3.890   0.318
 4516SOL    HW113575   3.779   3.973   0.264
 4516SOL    HW213576   3.886   3.853   0.296
 4517SOL     OW13577   4.907   5.059   0.119
 4517SOL    HW113578   4.808   5.048   0.121
 4517SOL    HW213579   4.941   5.074   0.212
 4518SOL     OW13580   4.337   4.566   1.431
 4518SOL    HW113581   4.393   4.647   1.414
 4518SOL    HW213582   4.396   4.486   1.434
 4519SOL     OW13583   4.440   4.289   1.708
 4519SOL    HW113584   4.459   4.354   1.782
 4519SOL    HW213585   4.500   4.209   1.717
 4520SOL     OW13586   5.174   4.944   1.633
 4520SOL    HW113587   5.165   4.934   1.732
 4520SOL    HW213588   5.270   4.937   1.607
 4521SOL     OW13589   4.949   4.049   0.449
 4521SOL    HW113590   5.014   3.975   0.438
 4521SOL    HW213591   4.969   4.099   0.533
 4522SOL     OW13592   4.318   4.469   0.652
 4522SOL    HW113593   4.368   4.554   0.633
 4522SOL    HW213594   4.230   4.471   0.604
 4523SOL     OW13595   4.583   5.098   0.016
 4523SOL    HW113596   4.537   5.113   0.104
 4523SOL    HW213597   4.627   5.183  -0.014
 4524SOL     OW13598   4.583   4.680   0.861
 4524SOL    HW113599   4.637   4.611   0.909
 4524SOL    HW213600   4.551   4.749   0.927
 4525SOL     OW13601   4.807   4.708   0.087
 4525SOL    HW113602   4.784   4.761   0.005
 4525SOL    HW213603   4.888   4.652   0.068
 4526SOL     OW13604   3.945   5.038   1.844
 4526SOL    HW113605   3.880   4.965   1.823
 4526SOL    HW213606   3.949   5.052   1.942
 4527SOL     OW13607   3.803   4.964   0.653
 4527SOL    HW113608   3.802   4.917   0.741
 4527SOL    HW213609   3.885   4.936   0.602
 4528SOL     OW13610   4.396   5.115   1.624
 4528SOL    HW113611   4.318   5.065   1.662
 4528SOL    HW213612   4.393   5.210   1.655
 4529SOL     OW13613   4.152   4.148   0.520
 4529SOL    HW113614   4.182   4.076   0.458
 4529SOL    HW213615   4.113   4.108   0.603
 4530SOL     OW13616   5.429   5.211   1.104
 4530SOL    HW113617   5.336   5.186   1.077
 4530SOL    HW213618   5.455   5.161   1.186
 4531SOL     OW13619   4.041   4.271   1.280
 4531SOL    HW113620   4.079   4.212   1.352
 4531SOL    HW213621   4.081   4.245   1.192
 4532SOL     OW13622   5.148   3.938   1.112
 4532SOL    HW113623   5.200   3.873   1.167
 4532SOL    HW213624   5.099   4.001   1.173
 4533SOL     OW13625   4.725   3.758   1.154
 4533SOL    HW113626   4.662   3.686   1.123
 4533SOL    HW213627   4.818   3.722   1.154
 4534SOL     OW13628   4.494   5.054   0.301
 4534SOL    HW113629   4.448   4.967   0.318
 4534SOL    HW213630   4.585   5.051   0.342
 4535SOL     OW13631   4.342   5.291   1.284
 4535SOL    HW113632   4.337   5.373   1.341
 4535SOL    HW213633   4.431   5.288   1.239
 4536SOL     OW13634   5.076   3.776   0.168
 4536SOL    HW113635   5.111   3.735   0.084
 4536SOL    HW213636   4.986   3.738   0.188
 4537SOL     OW13637   5.024   4.177   0.691
 4537SOL    HW113638   4.965   4.257   0.695
 4537SOL    HW213639   5.039   4.142   0.784
 4538SOL     OW13640   3.763   4.801   0.300
 4538SOL    HW113641   3.862   4.790   0.291
 4538SOL    HW213642   3.723   4.715   0.332
 4539SOL     OW13643   3.954   4.352   1.975
 4539SOL    HW113644   3.861   4.350   2.012
 4539SOL    HW213645   3.955   4.313   1.883
 4540SOL     OW13646   3.949   3.999   2.858
 4540SOL    HW113647   3.984   3.982   2.950
 4540SOL    HW213648   3.861   3.954   2.846
 4541SOL     OW13649   3.743   4.092   2.509
 4541SOL    HW113650   3.661   4.135   2.548
 4541SOL    HW213651   3.715   4.019   2.446
 4542SOL     OW13652   4.293   4.999   3.027
 4542SOL    HW113653   4.200   4.992   2.990
 4542SOL    HW213654   4.304   5.088   3.071
 4543SOL     OW13655   5.279   5.235   2.565
 4543SOL    HW113656   5.222   5.219   2.646
 4543SOL    HW213657   5.220   5.245   2.485
 4544SOL     OW13658   4.859   4.427   2.579
 4544SOL    HW113659   4.916   4.505   2.554
 4544SOL    HW213660   4.799   4.453   2.655
 4545SOL     OW13661   4.492   4.868   2.885
 4545SOL    HW113662   4.414   4.885   2.945
 4545SOL    HW213663   4.526   4.955   2.849
 4546SOL     OW13664   4.574   4.522   3.685
 4546SOL    HW113665   4.570   4.598   3.750
 4546SOL    HW213666   4.596   4.558   3.594
 4547SOL     OW13667   4.409   4.736   2.527
 4547SOL    HW113668   4.478   4.720   2.597
 4547SOL    HW213669   4.336   4.793   2.565
 4548SOL     OW13670   4.410   4.885   3.665
 4548SOL    HW113671   4.470   4.964   3.679
 4548SOL    HW213672   4.324   4.916   3.624
 4549SOL     OW13673   4.059   5.159   2.923
 4549SOL    HW113674   3.981   5.128   2.870
 4549SOL    HW213675   4.117   5.217   2.866
 4550SOL     OW13676   4.162   4.116   3.361
 4550SOL    HW113677   4.244   4.060   3.370
 4550SOL    HW213678   4.081   4.058   3.365
 4551SOL     OW13679   3.955   5.437   2.345
 4551SOL    HW113680   3.989   5.514   2.399
 4551SOL    HW213681   3.999   5.437   2.255
 4552SOL     OW13682   4.851   5.065   3.552
 4552SOL    HW113683   4.898   5.065   3.640
 4552SOL    HW213684   4.803   4.978   3.541
 4553SOL     OW13685   3.954   5.158   2.400
 4553SOL    HW113686   3.928   5.254   2.400
 4553SOL    HW213687   3.883   5.104   2.445
 4554SOL     OW13688   3.964   4.815   2.748
 4554SOL    HW113689   3.978   4.731   2.800
 4554SOL    HW213690   3.909   4.879   2.803
 4555SOL     OW13691   4.330   4.688   1.985
 4555SOL    HW113692   4.337   4.772   1.931
 4555SOL    HW213693   4.376   4.701   2.073
 4556SOL     OW13694   3.846   4.367   2.425
 4556SOL    HW113695   3.801   4.279   2.442
 4556SOL    HW213696   3.845   4.421   2.509
 4557SOL     OW13697   3.751   5.320   1.979
 4557SOL    HW113698   3.732   5.224   2.000
 4557SOL    HW213699   3.718   5.378   2.054
 4558SOL     OW13700   5.413   4.646   2.474
 4558SOL    HW113701   5.508   4.617   2.482
 4558SOL    HW213702   5.405   4.711   2.399
 4559SOL     OW13703   3.837   4.461   3.459
 4559SOL    HW113704   3.925   4.448   3.504
 4559SOL    HW213705   3.824   4.558   3.437
 4560SOL     OW13706   4.337   5.089   2.588
 4560SOL    HW113707   4.288   5.002   2.597
 4560SOL    HW213708   4.314   5.132   2.501
 4561SOL     OW13709   5.017   4.952   3.285
 4561SOL    HW113710   5.054   4.879   3.227
 4561SOL    HW213711   5.069   4.957   3.370
 4562SOL     OW13712   4.533   3.728   2.364
 4562SOL    HW113713   4.573   3.819   2.355
 4562SOL    HW213714   4.433   3.736   2.370
 4563SOL     OW13715   3.921   4.700   3.126
 4563SOL    HW113716   4.010   4.655   3.112
 4563SOL    HW213717   3.848   4.635   3.107
 4564SOL     OW13718   4.041   3.975   3.663
 4564SOL    HW113719   4.112   4.046   3.669
 4564SOL    HW213720   3.953   4.014   3.691
 4565SOL     OW13721   5.190   5.141   2.815
 4565SOL    HW113722   5.131   5.147   2.895
 4565SOL    HW213723   5.175   5.053   2.769
 4566SOL     OW13724   4.322   4.453   2.132
 4566SOL    HW113725   4.346   4.522   2.064
 4566SOL    HW213726   4.244   4.486   2.186
 4567SOL     OW13727   5.005   4.069   2.806
 4567SOL    HW113728   4.919   4.019   2.793
 4567SOL    HW213729   5.067   4.015   2.862
 4568SOL     OW13730   4.531   4.329   3.327
 4568SOL    HW113731   4.484   4.326   3.416
 4568SOL    HW213732   4.480   4.274   3.261
 4569SOL     OW13733   5.118   4.193   3.536
 4569SOL    HW113734   5.098   4.236   3.624
 4569SOL    HW213735   5.196   4.131   3.545
 4570SOL     OW13736   4.697   4.614   3.434
 4570SOL    HW113737   4.743   4.530   3.405
 4570SOL    HW213738   4.641   4.648   3.359
 4571SOL     OW13739   4.715   4.134   3.104
 4571SOL    HW113740   4.638   4.168   3.158
 4571SOL    HW213741   4.681   4.083   3.025
 4572SOL     OW13742   4.765   4.425   2.291
 4572SOL    HW113743   4.791   4.421   2.387
 4572SOL    HW213744   4.680   4.374   2.277
 4573SOL     OW13745   3.800   4.535   2.651
 4573SOL    HW113746   3.899   4.523   2.660
 4573SOL    HW213747   3.776   4.630   2.672
 4574SOL     OW13748   4.589   4.072   2.057
 4574SOL    HW113749   4.648   4.135   2.008
 4574SOL    HW213750   4.608   3.978   2.028
 4575SOL     OW13751   5.086   4.868   2.407
 4575SOL    HW113752   5.169   4.839   2.359
 4575SOL    HW213753   5.037   4.935   2.351
 4576SOL     OW13754   4.274   3.920   2.747
 4576SOL    HW113755   4.269   3.915   2.847
 4576SOL    HW213756   4.276   4.016   2.718
 4577SOL     OW13757   4.732   5.180   2.339
 4577SOL    HW113758   4.686   5.252   2.287
 4577SOL    HW213759   4.728   5.200   2.437
 4578SOL     OW13760   4.951   5.274   3.368
 4578SOL    HW113761   4.957   5.197   3.432
 4578SOL    HW213762   4.899   5.248   3.288
 4579SOL     OW13763   4.045   4.667   2.104
 4579SOL    HW113764   4.127   4.706   2.062
 4579SOL    HW213765   4.018   4.585   2.055
 4580SOL     OW13766   4.185   4.990   3.589
 4580SOL    HW113767   4.135   4.991   3.503
 4580SOL    HW213768   4.122   4.972   3.665
 4581SOL     OW13769   4.835   5.500   2.099
 4581SOL    HW113770   4.775   5.438   2.149
 4581SOL    HW213771   4.866   5.456   2.014
 4582SOL     OW13772   3.926   4.009   3.360
 4582SOL    HW113773   3.846   4.069   3.347
 4582SOL    HW213774   3.916   3.960   3.446
 4583SOL     OW13775   5.124   3.831   2.288
 4583SOL    HW113776   5.100   3.794   2.198
 4583SOL    HW213777   5.223   3.847   2.292
 4584SOL     OW13778   4.106   4.424   2.342
 4584SOL    HW113779   4.151   4.334   2.339
 4584SOL    HW213780   4.012   4.413   2.375
 4585SOL     OW13781   4.338   3.846   1.979
 4585SOL    HW113782   4.436   3.824   1.986
 4585SOL    HW213783   4.307   3.829   1.886
 4586SOL     OW13784   4.505   3.988   3.611
 4586SOL    HW113785   4.572   3.927   3.654
 4586SOL    HW213786   4.432   4.007   3.676
 4587SOL     OW13787   5.075   4.314   3.295
 4587SOL    HW113788   5.103   4.271   3.380
 4587SOL    HW213789   5.100   4.410   3.296
 4588SOL     OW13790   4.527   5.126   2.786
 4588SOL    HW113791   4.617   5.140   2.744
 4588SOL    HW213792   4.456   5.128   2.715
 4589SOL     OW13793   4.646   4.227   2.761
 4589SOL    HW113794   4.621   4.218   2.665
 4589SOL    HW213795   4.694   4.145   2.792
 4590SOL     OW13796   4.263   3.788   2.374
 4590SOL    HW113797   4.182   3.789   2.432
 4590SOL    HW213798   4.266   3.871   2.319
 4591SOL     OW13799   5.158   4.912   1.903
 4591SOL    HW113800   5.190   4.836   1.960
 4591SOL    HW213801   5.066   4.939   1.933
 4592SOL     OW13802   4.021   3.759   2.033
 4592SOL    HW113803   4.070   3.843   2.012
 4592SOL    HW213804   4.083   3.694   2.078
 4593SOL     OW13805   4.659   3.960   2.342
 4593SOL    HW113806   4.611   4.001   2.264
 4593SOL    HW213807   4.758   3.958   2.323
 4594SOL     OW13808   4.800   4.407   3.326
 4594SOL    HW113809   4.720   4.346   3.329
 4594SOL    HW213810   4.881   4.354   3.302
 4595SOL     OW13811   4.951   5.294   2.655
 4595SOL    HW113812   4.972   5.368   2.590
 4595SOL    HW213813   5.019   5.294   2.728
 4596SOL     OW13814   4.183   4.876   2.603
 4596SOL    HW113815   4.112   4.849   2.668
 4596SOL    HW213816   4.157   4.848   2.510
 4597SOL     OW13817   4.756   4.273   1.878
 4597SOL    HW113818   4.715   4.355   1.839
 4597SOL    HW213819   4.820   4.299   1.951
 4598SOL     OW13820   3.802   4.280   3.248
 4598SOL    HW113821   3.894   4.279   3.207
 4598SOL    HW213822   3.796   4.354   3.315
 4599SOL     OW13823   4.285   3.946   3.009
 4599SOL    HW113824   4.323   3.862   3.046
 4599SOL    HW213825   4.197   3.965   3.053
 4600SOL     OW13826   4.590   4.178   2.504
 4600SOL    HW113827   4.558   4.250   2.442
 4600SOL    HW213828   4.614   4.097   2.451
 4601SOL     OW13829   4.741   3.763   2.615
 4601SOL    HW113830   4.669   3.768   2.546
 4601SOL    HW213831   4.717   3.694   2.684
 4602SOL     OW13832   5.153   4.897   2.729
 4602SOL    HW113833   5.098   4.813   2.722
 4602SOL    HW213834   5.179   4.926   2.637
 4603SOL     OW13835   4.212   5.109   2.036
 4603SOL    HW113836   4.125   5.094   2.083
 4603SOL    HW213837   4.195   5.135   1.941
 4604SOL     OW13838   5.114   4.299   1.940
 4604SOL    HW113839   5.060   4.278   2.021
 4604SOL    HW213840   5.205   4.258   1.949
 4605SOL     OW13841   4.251   3.980   2.190
 4605SOL    HW113842   4.278   3.921   2.115
 4605SOL    HW213843   4.251   4.075   2.159
 4606SOL     OW13844   4.788   5.071   3.202
 4606SOL    HW113845   4.708   5.048   3.257
 4606SOL    HW213846   4.871   5.045   3.251
 4607SOL     OW13847   4.835   4.919   2.962
 4607SOL    HW113848   4.795   4.963   3.043
 4607SOL    HW213849   4.794   4.956   2.879
 4608SOL     OW13850   4.639   3.813   3.264
 4608SOL    HW113851   4.664   3.793   3.169
 4608SOL    HW213852   4.711   3.869   3.306
 4609SOL     OW13853   4.704   4.840   3.581
 4609SOL    HW113854   4.605   4.846   3.591
 4609SOL    HW213855   4.727   4.760   3.525
 4610SOL     OW13856   4.429   4.774   2.230
 4610SOL    HW113857   4.415   4.781   2.329
 4610SOL    HW213858   4.513   4.723   2.212
 4611SOL     OW13859   4.134   4.537   3.113
 4611SOL    HW113860   4.220   4.549   3.163
 4611SOL    HW213861   4.092   4.450   3.140
 4612SOL     OW13862   4.998   4.110   3.124
 4612SOL    HW113863   5.019   4.184   3.188
 4612SOL    HW213864   4.909   4.127   3.081
 4613SOL     OW13865   4.091   4.824   2.363
 4613SOL    HW113866   4.084   4.907   2.307
 4613SOL    HW213867   4.095   4.744   2.303
 4614SOL     OW13868   4.290   4.261   2.727
 4614SOL    HW113869   4.302   4.327   2.653
 4614SOL    HW213870   4.336   4.295   2.810
 4615SOL     OW13871   4.976   5.072   2.250
 4615SOL    HW113872   5.026   5.149   2.290
 4615SOL    HW213873   4.881   5.074   2.282
 4616SOL     OW13874   4.996   5.169   3.004
 4616SOL    HW113875   5.043   5.182   3.091
 4616SOL    HW213876   4.930   5.095   3.013
 4617SOL     OW13877   4.078   5.234   3.191
 4617SOL    HW113878   4.057   5.190   3.104
 4617SOL    HW213879   4.175   5.260   3.194
 4618SOL     OW13880   4.126   4.475   3.460
 4618SOL    HW113881   4.194   4.530   3.413
 4618SOL    HW213882   4.166   4.387   3.487
 4619SOL     OW13883   4.737   3.829   3.632
 4619SOL    HW113884   4.743   3.914   3.580
 4619SOL    HW213885   4.769   3.753   3.575
 4620SOL     OW13886   4.228   3.774   3.602
 4620SOL    HW113887   4.186   3.717   3.532
 4620SOL    HW213888   4.162   3.843   3.634
 4621SOL     OW13889   4.297   4.594   2.891
 4621SOL    HW113890   4.341   4.683   2.882
 4621SOL    HW213891   4.234   4.594   2.968
 4622SOL     OW13892   5.084   4.586   2.907
 4622SOL    HW113893   5.009   4.586   2.841
 4622SOL    HW213894   5.121   4.494   2.916
 4623SOL     OW13895   4.933   4.249   2.137
 4623SOL    HW113896   4.946   4.165   2.191
 4623SOL    HW213897   4.904   4.323   2.197
 4624SOL     OW13898   4.031   3.937   3.093
 4624SOL    HW113899   4.008   3.974   3.183
 4624SOL    HW213900   4.001   3.842   3.087
 4625SOL     OW13901   3.761   5.034   3.144
 4625SOL    HW113902   3.814   4.985   3.212
 4625SOL    HW213903   3.783   5.132   3.149
 4626SOL     OW13904   4.456   4.358   2.926
 4626SOL    HW113905   4.515   4.332   2.850
 4626SOL    HW213906   4.428   4.454   2.915
 4627SOL     OW13907   4.031   3.787   2.480
 4627SOL    HW113908   4.020   3.881   2.513
 4627SOL    HW213909   4.026   3.724   2.557
 4628SOL     OW13910   5.346   4.091   2.236
 4628SOL    HW113911   5.348   4.015   2.300
 4628SOL    HW213912   5.298   4.168   2.276
 4629SOL     OW13913   4.747   4.490   2.828
 4629SOL    HW113914   4.762   4.511   2.924
 4629SOL    HW213915   4.717   4.395   2.819
 4630SOL     OW13916   4.074   4.622   3.666
 4630SOL    HW113917   4.150   4.666   3.714
 4630SOL    HW213918   4.109   4.575   3.584
 4631SOL     OW13919   5.027   4.562   1.904
 4631SOL    HW113920   5.061   4.469   1.919
 4631SOL    HW213921   5.045   4.589   1.809
 4632SOL     OW13922   4.792   5.057   2.711
 4632SOL    HW113923   4.799   4.973   2.656
 4632SOL    HW213924   4.854   5.126   2.675
 4633SOL     OW13925   4.043   4.534   2.811
 4633SOL    HW113926   4.136   4.570   2.816
 4633SOL    HW213927   4.037   4.449   2.863
 4634SOL     OW13928   4.063   4.233   2.868
 4634SOL    HW113929   4.011   4.150   2.851
 4634SOL    HW213930   4.140   4.238   2.804
 4635SOL     OW13931   4.862   4.104   3.540
 4635SOL    HW113932   4.817   4.167   3.604
 4635SOL    HW213933   4.955   4.135   3.523
 4636SOL     OW13934   4.884   3.931   3.339
 4636SOL    HW113935   4.884   3.995   3.416
 4636SOL    HW213936   4.912   3.979   3.256
 4637SOL     OW13937   3.732   5.050   2.062
 4637SOL    HW113938   3.639   5.071   2.031
 4637SOL    HW213939   3.742   4.951   2.075
 4638SOL     OW13940   4.726   4.520   3.100
 4638SOL    HW113941   4.767   4.488   3.186
 4638SOL    HW213942   4.630   4.493   3.097
 4639SOL     OW13943   3.764   4.268   2.976
 4639SOL    HW113944   3.849   4.235   2.935
 4639SOL    HW213945   3.777   4.283   3.074
 4640SOL     OW13946   3.913   4.244   3.584
 4640SOL    HW113947   3.972   4.204   3.514
 4640SOL    HW213948   3.855   4.315   3.543
 4641SOL     OW13949   5.093   4.674   3.522
 4641SOL    HW113950   5.132   4.763   3.542
 4641SOL    HW213951   5.103   4.654   3.425
 4642SOL     OW13952   4.539   4.296   2.187
 4642SOL    HW113953   4.546   4.207   2.141
 4642SOL    HW213954   4.445   4.330   2.179
 4643SOL     OW13955   3.976   5.288   3.606
 4643SOL    HW113956   3.946   5.345   3.682
 4643SOL    HW213957   3.969   5.191   3.632
 4644SOL     OW13958   4.395   4.188   3.131
 4644SOL    HW113959   4.361   4.099   3.101
 4644SOL    HW213960   4.421   4.242   3.051
 4645SOL     OW13961   4.197   4.224   2.053
 4645SOL    HW113962   4.258   4.304   2.057
 4645SOL    HW213963   4.102   4.255   2.060
 4646SOL     OW13964   3.883   4.861   3.328
 4646SOL    HW113965   3.905   4.800   3.404
 4646SOL    HW213966   3.893   4.812   3.242
 4647SOL     OW13967   5.071   4.783   3.096
 4647SOL    HW113968   5.095   4.720   3.022
 4647SOL    HW213969   4.981   4.823   3.078
 4648SOL     OW13970   5.026   4.579   2.171
 4648SOL    HW113971   4.940   4.548   2.213
 4648SOL    HW213972   5.022   4.565   2.072
 4649SOL     OW13973   3.807   4.982   2.884
 4649SOL    HW113974   3.802   4.981   2.984
 4649SOL    HW213975   3.724   4.941   2.846
 4650SOL     OW13976   5.450   3.859   2.385
 4650SOL    HW113977   5.523   3.842   2.318
 4650SOL    HW213978   5.419   3.772   2.423
 4651SOL     OW13979   5.004   4.651   2.534
 4651SOL    HW113980   5.064   4.570   2.536
 4651SOL    HW213981   5.044   4.720   2.474
 4652SOL     OW13982   4.554   4.997   3.284
 4652SOL    HW113983   4.549   5.030   3.379
 4652SOL    HW213984   4.468   5.016   3.238
 4653SOL     OW13985   3.987   4.050   2.582
 4653SOL    HW113986   3.908   4.101   2.548
 4653SOL    HW213987   3.978   4.035   2.680
 4654SOL     OW13988   4.546   4.726   3.234
 4654SOL    HW113989   4.586   4.725   3.142
 4654SOL    HW213990   4.556   4.818   3.274
 4655SOL     OW13991   4.640   4.634   2.153
 4655SOL    HW113992   4.703   4.672   2.085
 4655SOL    HW213993   4.680   4.551   2.192
 4656SOL     OW13994   4.096   5.012   3.352
 4656SOL    HW113995   4.083   5.105   3.318
 4656SOL    HW213996   4.012   4.960   3.339
 4657SOL     OW13997   4.763   4.822   2.558
 4657SOL    HW113998   4.693   4.775   2.612
 4657SOL    HW213999   4.822   4.754   2.515
 4658SOL     OW14000   4.738   3.960   2.833
 4658SOL    HW114001   4.730   3.924   2.740
 4658SOL    HW214002   4.736   3.884   2.898
 4659SOL     OW14003   3.979   5.072   2.152
 4659SOL    HW114004   3.883   5.073   2.125
 4659SOL    HW214005   3.991   5.125   2.236
 4660SOL     OW14006   3.829   4.737   3.588
 4660SOL    HW114007   3.752   4.704   3.642
 4660SOL    HW214008   3.914   4.707   3.630
 4661SOL     OW14009   4.396   3.927   3.351
 4661SOL    HW114010   4.486   3.911   3.311
 4661SOL    HW214011   4.404   3.932   3.450
 4662SOL     OW14012   3.799   4.069   1.895
 4662SOL    HW114013   3.707   4.041   1.866
 4662SOL    HW214014   3.830   4.146   1.839
 4663SOL     OW14015   5.164   4.580   3.260
 4663SOL    HW114016   5.107   4.632   3.197
 4663SOL    HW214017   5.260   4.592   3.236
 4664SOL     OW14018   3.796   3.890   2.180
 4664SOL    HW114019   3.779   3.973   2.126
 4664SOL    HW214020   3.886   3.853   2.158
 4665SOL     OW14021   4.907   5.059   1.981
 4665SOL    HW114022   4.808   5.048   1.983
 4665SOL    HW214023   4.941   5.074   2.074
 4666SOL     OW14024   4.337   4.566   3.293
 4666SOL    HW114025   4.393   4.647   3.276
 4666SOL    HW214026   4.396   4.486   3.296
 4667SOL     OW14027   4.440   4.289   3.570
 4667SOL    HW114028   4.459   4.354   3.644
 4667SOL    HW214029   4.500   4.209   3.579
 4668SOL     OW14030   5.174   4.944   3.495
 4668SOL    HW114031   5.165   4.934   3.594
 4668SOL    HW214032   5.270   4.937   3.469
 4669SOL     OW14033   4.949   4.049   2.311
 4669SOL    HW114034   5.014   3.975   2.300
 4669SOL    HW214035   4.969   4.099   2.395
 4670SOL     OW14036   4.318   4.469   2.514
 4670SOL    HW114037   4.368   4.554   2.495
 4670SOL    HW214038   4.230   4.471   2.466
 4671SOL     OW14039   4.583   5.098   1.878
 4671SOL    HW114040   4.537   5.113   1.966
 4671SOL    HW214041   4.627   5.183   1.848
 4672SOL     OW14042   4.583   4.680   2.723
 4672SOL    HW114043   4.637   4.611   2.771
 4672SOL    HW214044   4.551   4.749   2.789
 4673SOL     OW14045   4.807   4.708   1.949
 4673SOL    HW114046   4.784   4.761   1.867
 4673SOL    HW214047   4.888   4.652   1.930
 4674SOL     OW14048   3.945   5.038   3.706
 4674SOL    HW114049   3.880   4.965   3.685
 4674SOL    HW214050   3.949   5.052   3.804
 4675SOL     OW14051   3.803   4.964   2.515
 4675SOL    HW114052   3.802   4.917   2.603
 4675SOL    HW214053   3.885   4.936   2.464
 4676SOL     OW14054   4.396   5.115   3.486
 4676SOL    HW114055   4.318   5.065   3.524
 4676SOL    HW214056   4.393   5.210   3.517
 4677SOL     OW14057   4.152   4.148   2.382
 4677SOL    HW114058   4.182   4.076   2.320
 4677SOL    HW214059   4.113   4.108   2.465
 4678SOL     OW14060   5.429   5.211   2.966
 4678SOL    HW114061   5.336   5.186   2.939
 4678SOL    HW214062   5.455   5.161   3.048
 4679SOL     OW14063   4.041   4.271   3.142
 4679SOL    HW114064   4.079   4.212   3.214
 4679SOL    HW214065   4.081   4.245   3.054
 4680SOL     OW14066   5.148   3.938   2.974
 4680SOL    HW114067   5.200   3.873   3.029
 4680SOL    HW214068   5.099   4.001   3.035
 4681SOL     OW14069   4.725   3.758   3.016
 4681SOL    HW114070   4.662   3.686   2.985
 4681SOL    HW214071   4.818   3.722   3.016
 4682SOL     OW14072   4.494   5.054   2.163
 4682SOL    HW114073   4.448   4.967   2.180
 4682SOL    HW214074   4.585   5.051   2.204
 4683SOL     OW14075   4.342   5.291   3.146
 4683SOL    HW114076   4.337   5.373   3.203
 4683SOL    HW214077   4.431   5.288   3.101
 4684SOL     OW14078   5.076   3.776   2.030
 4684SOL    HW114079   5.111   3.735   1.946
 4684SOL    HW214080   4.986   3.738   2.050
 4685SOL     OW14081   5.024   4.177   2.553
 4685SOL    HW114082   4.965   4.257   2.557
 4685SOL    HW214083   5.039   4.142   2.646
 4686SOL     OW14084   3.763   4.801   2.162
 4686SOL    HW114085   3.862   4.790   2.153
 4686SOL    HW214086   3.723   4.715   2.194
 4687SOL     OW14087   3.954   4.352   3.837
 4687SOL    HW114088   3.861   4.350   3.874
 4687SOL    HW214089   3.955   4.313   3.745
 4688SOL     OW14090   3.949   3.999   4.720
 4688SOL    HW114091   3.984   3.982   4.812
 4688SOL    HW214092   3.861   3.954   4.708
 4689SOL     OW14093   3.743   4.092   4.371
 4689SOL    HW114094   3.661   4.135   4.410
 4689SOL    HW214095   3.715   4.019   4.308
 4690SOL     OW14096   4.293   4.999   4.889
 4690SOL    HW114097   4.200   4.992   4.852
 4690SOL    HW214098   4.304   5.088   4.933
 4691SOL     OW14099   5.279   5.235   4.427
 4691SOL    HW114100   5.222   5.219   4.508
 4691SOL    HW214101   5.220   5.245   4.347
 4692SOL     OW14102   4.859   4.427   4.441
 4692SOL    HW114103   4.916   4.505   4.416
 4692SOL    HW214104   4.799   4.453   4.517
 4693SOL     OW14105   4.492   4.868   4.747
 4693SOL    HW114106   4.414   4.885   4.807
 4693SOL    HW214107   4.526   4.955   4.711
 4694SOL     OW14108   4.409   4.736   4.389
 4694SOL    HW114109   4.478   4.720   4.459
 4694SOL    HW214110   4.336   4.793   4.427
 4695SOL     OW14111   4.059   5.159   4.785
 4695SOL    HW114112   3.981   5.128   4.732
 4695SOL    HW214113   4.117   5.217   4.728
 4696SOL     OW14114   4.162   4.116   5.223
 4696SOL    HW114115   4.244   4.060   5.232
 4696SOL    HW214116   4.081   4.058   5.227
 4697SOL     OW14117   3.955   5.437   4.207
 4697SOL    HW114118   3.989   5.514   4.261
 4697SOL    HW214119   3.999   5.437   4.117
 4698SOL     OW14120   3.954   5.158   4.262
 4698SOL    HW114121   3.928   5.254   4.262
 4698SOL    HW214122   3.883   5.104   4.307
 4699SOL     OW14123   3.964   4.815   4.610
 4699SOL    HW114124   3.978   4.731   4.662
 4699SOL    HW214125   3.909   4.879   4.665
 4700SOL     OW14126   4.330   4.688   3.847
 4700SOL    HW114127   4.337   4.772   3.793
 4700SOL    HW214128   4.376   4.701   3.935
 4701SOL     OW14129   3.846   4.367   4.287
 4701SOL    HW114130   3.801   4.279   4.304
 4701SOL    HW214131   3.845   4.421   4.371
 4702SOL     OW14132   3.751   5.320   3.841
 4702SOL    HW114133   3.732   5.224   3.862
 4702SOL    HW214134   3.718   5.378   3.916
 4703SOL     OW14135   5.413   4.646   4.336
 4703SOL    HW114136   5.508   4.617   4.344
 4703SOL    HW214137   5.405   4.711   4.261
 4704SOL     OW14138   4.337   5.089   4.450
 4704SOL    HW114139   4.288   5.002   4.459
 4704SOL    HW214140   4.314   5.132   4.363
 4705SOL     OW14141   4.533   3.728   4.226
 4705SOL    HW114142   4.573   3.819   4.217
 4705SOL    HW214143   4.433   3.736   4.232
 4706SOL     OW14144   3.921   4.700   4.988
 4706SOL    HW114145   4.010   4.655   4.974
 4706SOL    HW214146   3.848   4.635   4.969
 4707SOL     OW14147   4.041   3.975   5.525
 4707SOL    HW114148   4.112   4.046   5.531
 4707SOL    HW214149   3.953   4.014   5.553
 4708SOL     OW14150   5.190   5.141   4.677
 4708SOL    HW114151   5.131   5.147   4.757
 4708SOL    HW214152   5.175   5.053   4.631
 4709SOL     OW14153   4.322   4.453   3.994
 4709SOL    HW114154   4.346   4.522   3.926
 4709SOL    HW214155   4.244   4.486   4.048
 4710SOL     OW14156   5.005   4.069   4.668
 4710SOL    HW114157   4.919   4.019   4.655
 4710SOL    HW214158   5.067   4.015   4.724
 4711SOL     OW14159   4.531   4.329   5.189
 4711SOL    HW114160   4.484   4.326   5.278
 4711SOL    HW214161   4.480   4.274   5.123
 4712SOL     OW14162   4.715   4.134   4.966
 4712SOL    HW114163   4.638   4.168   5.020
 4712SOL    HW214164   4.681   4.083   4.887
 4713SOL     OW14165   4.765   4.425   4.153
 4713SOL    HW114166   4.791   4.421   4.249
 4713SOL    HW214167   4.680   4.374   4.139
 4714SOL     OW14168   3.800   4.535   4.513
 4714SOL    HW114169   3.899   4.523   4.522
 4714SOL    HW214170   3.776   4.630   4.534
 4715SOL     OW14171   4.589   4.072   3.919
 4715SOL    HW114172   4.648   4.135   3.870
 4715SOL    HW214173   4.608   3.978   3.890
 4716SOL     OW14174   5.086   4.868   4.269
 4716SOL    HW114175   5.169   4.839   4.221
 4716SOL    HW214176   5.037   4.935   4.213
 4717SOL     OW14177   4.274   3.920   4.609
 4717SOL    HW114178   4.269   3.915   4.709
 4717SOL    HW214179   4.276   4.016   4.580
 4718SOL     OW14180   4.732   5.180   4.201
 4718SOL    HW114181   4.686   5.252   4.149
 4718SOL    HW214182   4.728   5.200   4.299
 4719SOL     OW14183   4.045   4.667   3.966
 4719SOL    HW114184   4.127   4.706   3.924
 4719SOL    HW214185   4.018   4.585   3.917
 4720SOL     OW14186   4.835   5.500   3.961
 4720SOL    HW114187   4.775   5.438   4.011
 4720SOL    HW214188   4.866   5.456   3.876
 4721SOL     OW14189   3.926   4.009   5.222
 4721SOL    HW114190   3.846   4.069   5.209
 4721SOL    HW214191   3.916   3.960   5.308
 4722SOL     OW14192   5.124   3.831   4.150
 4722SOL    HW114193   5.100   3.794   4.060
 4722SOL    HW214194   5.223   3.847   4.154
 4723SOL     OW14195   4.106   4.424   4.204
 4723SOL    HW114196   4.151   4.334   4.201
 4723SOL    HW214197   4.012   4.413   4.237
 4724SOL     OW14198   4.338   3.846   3.841
 4724SOL    HW114199   4.436   3.824   3.848
 4724SOL    HW214200   4.307   3.829   3.748
 4725SOL     OW14201   4.527   5.126   4.648
 4725SOL    HW114202   4.617   5.140   4.606
 4725SOL    HW214203   4.456   5.128   4.577
 4726SOL     OW14204   4.646   4.227   4.623
 4726SOL    HW114205   4.621   4.218   4.527
 4726SOL    HW214206   4.694   4.145   4.654
 4727SOL     OW14207   4.263   3.788   4.236
 4727SOL    HW114208   4.182   3.789   4.294
 4727SOL    HW214209   4.266   3.871   4.181
 4728SOL     OW14210   5.158   4.912   3.765
 4728SOL    HW114211   5.190   4.836   3.822
 4728SOL    HW214212   5.066   4.939   3.795
 4729SOL     OW14213   4.021   3.759   3.895
 4729SOL    HW114214   4.070   3.843   3.874
 4729SOL    HW214215   4.083   3.694   3.940
 4730SOL     OW14216   4.659   3.960   4.204
 4730SOL    HW114217   4.611   4.001   4.126
 4730SOL    HW214218   4.758   3.958   4.185
 4731SOL     OW14219   4.951   5.294   4.517
 4731SOL    HW114220   4.972   5.368   4.452
 4731SOL    HW214221   5.019   5.294   4.590
 4732SOL     OW14222   4.183   4.876   4.465
 4732SOL    HW114223   4.112   4.849   4.530
 4732SOL    HW214224   4.157   4.848   4.372
 4733SOL     OW14225   4.756   4.273   3.740
 4733SOL    HW114226   4.715   4.355   3.701
 4733SOL    HW214227   4.820   4.299   3.813
 4734SOL     OW14228   3.802   4.280   5.110
 4734SOL    HW114229   3.894   4.279   5.069
 4734SOL    HW214230   3.796   4.354   5.177
 4735SOL     OW14231   4.285   3.946   4.871
 4735SOL    HW114232   4.323   3.862   4.908
 4735SOL    HW214233   4.197   3.965   4.915
 4736SOL     OW14234   4.590   4.178   4.366
 4736SOL    HW114235   4.558   4.250   4.304
 4736SOL    HW214236   4.614   4.097   4.313
 4737SOL     OW14237   4.741   3.763   4.477
 4737SOL    HW114238   4.669   3.768   4.408
 4737SOL    HW214239   4.717   3.694   4.546
 4738SOL     OW14240   5.153   4.897   4.591
 4738SOL    HW114241   5.098   4.813   4.584
 4738SOL    HW214242   5.179   4.926   4.499
 4739SOL     OW14243   4.212   5.109   3.898
 4739SOL    HW114244   4.125   5.094   3.945
 4739SOL    HW214245   4.195   5.135   3.803
 4740SOL     OW14246   5.114   4.299   3.802
 4740SOL    HW114247   5.060   4.278   3.883
 4740SOL    HW214248   5.205   4.258   3.811
 4741SOL     OW14249   4.251   3.980   4.052
 4741SOL    HW114250   4.278   3.921   3.977
 4741SOL    HW214251   4.251   4.075   4.021
 4742SOL     OW14252   4.788   5.071   5.064
 4742SOL    HW114253   4.708   5.048   5.119
 4742SOL    HW214254   4.871   5.045   5.113
 4743SOL     OW14255   4.835   4.919   4.824
 4743SOL    HW114256   4.795   4.963   4.905
 4743SOL    HW214257   4.794   4.956   4.741
 4744SOL     OW14258   4.639   3.813   5.126
 4744SOL    HW114259   4.664   3.793   5.031
 4744SOL    HW214260   4.711   3.869   5.168
 4745SOL     OW14261   4.429   4.774   4.092
 4745SOL    HW114262   4.415   4.781   4.191
 4745SOL    HW214263   4.513   4.723   4.074
 4746SOL     OW14264   4.134   4.537   4.975
 4746SOL    HW114265   4.220   4.549   5.025
 4746SOL    HW214266   4.092   4.450   5.002
 4747SOL     OW14267   4.998   4.110   4.986
 4747SOL    HW114268   5.019   4.184   5.050
 4747SOL    HW214269   4.909   4.127   4.943
 4748SOL     OW14270   4.091   4.824   4.225
 4748SOL    HW114271   4.084   4.907   4.169
 4748SOL    HW214272   4.095   4.744   4.165
 4749SOL     OW14273   4.290   4.261   4.589
 4749SOL    HW114274   4.302   4.327   4.515
 4749SOL    HW214275   4.336   4.295   4.672
 4750SOL     OW14276   4.976   5.072   4.112
 4750SOL    HW114277   5.026   5.149   4.152
 4750SOL    HW214278   4.881   5.074   4.144
 4751SOL     OW14279   4.996   5.169   4.866
 4751SOL    HW114280   5.043   5.182   4.953
 4751SOL    HW214281   4.930   5.095   4.875
 4752SOL     OW14282   4.078   5.234   5.053
 4752SOL    HW114283   4.057   5.190   4.966
 4752SOL    HW214284   4.175   5.260   5.056
 4753SOL     OW14285   4.126   4.475   5.322
 4753SOL    HW114286   4.194   4.530   5.275
 4753SOL    HW214287   4.166   4.387   5.349
 4754SOL     OW14288   5.311   4.503   5.394
 4754SOL    HW114289   5.219   4.541   5.389
 4754SOL    HW214290   5.371   4.550   5.329
 4755SOL     OW14291   4.297   4.594   4.753
 4755SOL    HW114292   4.341   4.683   4.744
 4755SOL    HW214293   4.234   4.594   4.830
 4756SOL     OW14294   5.084   4.586   4.769
 4756SOL    HW114295   5.009   4.586   4.703
 4756SOL    HW214296   5.121   4.494   4.778
 4757SOL     OW14297   4.933   4.249   3.999
 4757SOL    HW114298   4.946   4.165   4.053
 4757SOL    HW214299   4.904   4.323   4.059
 4758SOL     OW14300   4.031   3.937   4.955
 4758SOL    HW114301   4.008   3.974   5.045
 4758SOL    HW214302   4.001   3.842   4.949
 4759SOL     OW14303   3.761   5.034   5.006
 4759SOL    HW114304   3.814   4.985   5.074
 4759SOL    HW214305   3.783   5.132   5.011
 4760SOL     OW14306   4.456   4.358   4.788
 4760SOL    HW114307   4.515   4.332   4.712
 4760SOL    HW214308   4.428   4.454   4.777
 4761SOL     OW14309   4.031   3.787   4.342
 4761SOL    HW114310   4.020   3.881   4.375
 4761SOL    HW214311   4.026   3.724   4.419
 4762SOL     OW14312   5.346   4.091   4.098
 4762SOL    HW114313   5.348   4.015   4.162
 4762SOL    HW214314   5.298   4.168   4.138
 4763SOL     OW14315   4.747   4.490   4.690
 4763SOL    HW114316   4.762   4.511   4.786
 4763SOL    HW214317   4.717   4.395   4.681
 4764SOL     OW14318   5.027   4.562   3.766
 4764SOL    HW114319   5.061   4.469   3.781
 4764SOL    HW214320   5.045   4.589   3.671
 4765SOL     OW14321   4.792   5.057   4.573
 4765SOL    HW114322   4.799   4.973   4.518
 4765SOL    HW214323   4.854   5.126   4.537
 4766SOL     OW14324   4.043   4.534   4.673
 4766SOL    HW114325   4.136   4.570   4.678
 4766SOL    HW214326   4.037   4.449   4.725
 4767SOL     OW14327   4.063   4.233   4.730
 4767SOL    HW114328   4.011   4.150   4.713
 4767SOL    HW214329   4.140   4.238   4.666
 4768SOL     OW14330   4.862   4.104   5.402
 4768SOL    HW114331   4.817   4.167   5.466
 4768SOL    HW214332   4.955   4.135   5.385
 4769SOL     OW14333   4.884   3.931   5.201
 4769SOL    HW114334   4.884   3.995   5.278
 4769SOL    HW214335   4.912   3.979   5.118
 4770SOL     OW14336   3.732   5.050   3.924
 4770SOL    HW114337   3.639   5.071   3.893
 4770SOL    HW214338   3.742   4.951   3.937
 4771SOL     OW14339   4.726   4.520   4.962
 4771SOL    HW114340   4.767   4.488   5.048
 4771SOL    HW214341   4.630   4.493   4.959
 4772SOL     OW14342   3.764   4.268   4.838
 4772SOL    HW114343   3.849   4.235   4.797
 4772SOL    HW214344   3.777   4.283   4.936
 4773SOL     OW14345   4.539   4.296   4.049
 4773SOL    HW114346   4.546   4.207   4.003
 4773SOL    HW214347   4.445   4.330   4.041
 4774SOL     OW14348   4.395   4.188   4.993
 4774SOL    HW114349   4.361   4.099   4.963
 4774SOL    HW214350   4.421   4.242   4.913
 4775SOL     OW14351   4.197   4.224   3.915
 4775SOL    HW114352   4.258   4.304   3.919
 4775SOL    HW214353   4.102   4.255   3.922
 4776SOL     OW14354   3.883   4.861   5.190
 4776SOL    HW114355   3.905   4.800   5.266
 4776SOL    HW214356   3.893   4.812   5.104
 4777SOL     OW14357   5.071   4.783   4.958
 4777SOL    HW114358   5.095   4.720   4.884
 4777SOL    HW214359   4.981   4.823   4.940
 4778SOL     OW14360   5.026   4.579   4.033
 4778SOL    HW114361   4.940   4.548   4.075
 4778SOL    HW214362   5.022   4.565   3.934
 4779SOL     OW14363   3.807   4.982   4.746
 4779SOL    HW114364   3.802   4.981   4.846
 4779SOL    HW214365   3.724   4.941   4.708
 4780SOL     OW14366   5.450   3.859   4.247
 4780SOL    HW114367   5.523   3.842   4.180
 4780SOL    HW214368   5.419   3.772   4.285
 4781SOL     OW14369   5.004   4.651   4.396
 4781SOL    HW114370   5.064   4.570   4.398
 4781SOL    HW214371   5.044   4.720   4.336
 4782SOL     OW14372   3.987   4.050   4.444
 4782SOL    HW114373   3.908   4.101   4.410
 4782SOL    HW214374   3.978   4.035   4.542
 4783SOL     OW14375   4.546   4.726   5.096
 4783SOL    HW114376   4.586   4.725   5.004
 4783SOL    HW214377   4.556   4.818   5.136
 4784SOL     OW14378   4.640   4.634   4.015
 4784SOL    HW114379   4.703   4.672   3.947
 4784SOL    HW214380   4.680   4.551   4.054
 4785SOL     OW14381   4.096   5.012   5.214
 4785SOL    HW114382   4.083   5.105   5.180
 4785SOL    HW214383   4.012   4.960   5.201
 4786SOL     OW14384   4.763   4.822   4.420
 4786SOL    HW114385   4.693   4.775   4.474
 4786SOL    HW214386   4.822   4.754   4.377
 4787SOL     OW14387   4.738   3.960   4.695
 4787SOL    HW114388   4.730   3.924   4.602
 4787SOL    HW214389   4.736   3.884   4.760
 4788SOL     OW14390   3.979   5.072   4.014
 4788SOL    HW114391   3.883   5.073   3.987
 4788SOL    HW214392   3.991   5.125   4.098
 4789SOL     OW14393   3.799   4.069   3.757
 4789SOL    HW114394   3.707   4.041   3.728
 4789SOL    HW214395   3.830   4.146   3.701
 4790SOL     OW14396   5.164   4.580   5.122
 4790SOL    HW114397   5.107   4.632   5.059
 4790SOL    HW214398   5.260   4.592   5.098
 4791SOL     OW14399   3.796   3.890   4.042
 4791SOL    HW114400   3.779   3.973   3.988
 4791SOL    HW214401   3.886   3.853   4.020
 4792SOL     OW14402   4.907   5.059   3.843
 4792SOL    HW114403   4.808   5.048   3.845
 4792SOL    HW214404   4.941   5.074   3.936
 4793SOL     OW14405   4.337   4.566   5.155
 4793SOL    HW114406   4.393   4.647   5.138
 4793SOL    HW214407   4.396   4.486   5.158
 4794SOL     OW14408   4.949   4.049   4.173
 4794SOL    HW114409   5.014   3.975   4.162
 4794SOL    HW214410   4.969   4.099   4.257
 4795SOL     OW14411   4.318   4.469   4.376
 4795SOL    HW114412   4.368   4.554   4.357
 4795SOL    HW214413   4.230   4.471   4.328
 4796SOL     OW14414   4.583   5.098   3.740
 4796SOL    HW114415   4.537   5.113   3.828
 4796SOL    HW214416   4.627   5.183   3.710
 4797SOL     OW14417   5.132   5.575   5.444
 4797SOL    HW114418   5.036   5.564   5.417
 4797SOL    HW214419   5.188   5.508   5.396
 4798SOL     OW14420   4.583   4.680   4.585
 4798SOL    HW114421   4.637   4.611   4.633
 4798SOL    HW214422   4.551   4.749   4.651
 4799SOL     OW14423   4.807   4.708   3.811
 4799SOL    HW114424   4.784   4.761   3.729
 4799SOL    HW214425   4.888   4.652   3.792
 4800SOL     OW14426   3.803   4.964   4.377
 4800SOL    HW114427   3.802   4.917   4.465
 4800SOL    HW214428   3.885   4.936   4.326
 4801SOL     OW14429   4.152   4.148   4.244
 4801SOL    HW114430   4.182   4.076   4.182
 4801SOL    HW214431   4.113   4.108   4.327
 4802SOL     OW14432   5.429   5.211   4.828
 4802SOL    HW114433   5.336   5.186   4.801
 4802SOL    HW214434   5.455   5.161   4.910
 4803SOL     OW14435   4.041   4.271   5.004
 4803SOL    HW114436   4.079   4.212   5.076
 4803SOL    HW214437   4.081   4.245   4.916
 4804SOL     OW14438   5.148   3.938   4.836
 4804SOL    HW114439   5.200   3.873   4.891
 4804SOL    HW214440   5.099   4.001   4.897
 4805SOL     OW14441   4.725   3.758   4.878
 4805SOL    HW114442   4.662   3.686   4.847
 4805SOL    HW214443   4.818   3.722   4.878
 4806SOL     OW14444   4.494   5.054   4.025
 4806SOL    HW114445   4.448   4.967   4.042
 4806SOL    HW214446   4.585   5.051   4.066
 4807SOL     OW14447   4.342   5.291   5.008
 4807SOL    HW114448   4.337   5.373   5.065
 4807SOL    HW214449   4.431   5.288   4.963
 4808SOL     OW14450   5.076   3.776   3.892
 4808SOL    HW114451   5.111   3.735   3.808
 4808SOL    HW214452   4.986   3.738   3.912
 4809SOL     OW14453   5.024   4.177   4.415
 4809SOL    HW114454   4.965   4.257   4.419
 4809SOL    HW214455   5.039   4.142   4.508
 4810SOL     OW14456   3.763   4.801   4.024
 4810SOL    HW114457   3.862   4.790   4.015
 4810SOL    HW214458   3.723   4.715   4.056
   5.28223   5.28223   5.28223
