mobley_1770205_GMX.gro created by acpype (v: 2023.10.27) on Wed May 20 23:59:36 2026
   31
    1MOL     C1    1   2.307   3.058   2.521
    1MOL     C2    2   2.406   3.155   2.522
    1MOL     C3    3   2.341   2.923   2.532
    1MOL     C4    4   2.540   3.118   2.536
    1MOL     C5    5   2.476   2.888   2.545
    1MOL     C6    6   2.577   2.983   2.547
    1MOL     C7    7   2.519   2.749   2.557
    1MOL     C8    8   2.632   2.142   2.839
    1MOL     C9    9   3.028   2.371   2.761
    1MOL    C10   10   2.707   2.596   2.586
    1MOL     N1   11   2.712   2.951   2.560
    1MOL     N2   12   2.747   2.831   2.571
    1MOL     N3   13   2.655   2.730   2.570
    1MOL     O1   14   2.436   2.659   2.556
    1MOL     O2   15   2.672   2.277   2.859
    1MOL     O3   16   2.909   2.326   2.823
    1MOL     P1   17   2.767   2.348   2.748
    1MOL     S1   18   2.759   2.260   2.574
    1MOL     S2   19   2.724   2.554   2.761
    1MOL     H1   20   2.202   3.087   2.511
    1MOL     H2   21   2.380   3.260   2.514
    1MOL     H3   22   2.264   2.847   2.531
    1MOL     H4   23   2.618   3.195   2.537
    1MOL     H5   24   2.541   2.124   2.897
    1MOL     H6   25   2.711   2.075   2.875
    1MOL     H7   26   2.612   2.122   2.734
    1MOL     H8   27   3.105   2.383   2.837
    1MOL     H9   28   3.013   2.468   2.711
    1MOL    H10   29   3.062   2.297   2.688
    1MOL    H11   30   2.641   2.524   2.537
    1MOL    H12   31   2.805   2.589   2.537
   5.28223   5.28223   5.28223
