mobley_9729792_GMX.gro created by acpype (v: 2023.10.27) on Wed May 20 23:45:13 2026
   15
    1MOL     C1    1   2.152   2.136   2.232
    1MOL     C2    2   2.279   2.097   2.222
    1MOL     C3    3   2.101   2.263   2.278
    1MOL     C4    4   2.398   2.170   2.256
    1MOL     C5    5   2.166   2.378   2.294
    1MOL     C6    6   2.412   2.302   2.276
    1MOL     C7    7   2.311   2.412   2.277
    1MOL     H1    8   2.075   2.065   2.203
    1MOL     H2    9   2.298   1.996   2.186
    1MOL     H3   10   1.993   2.263   2.297
    1MOL     H4   11   2.489   2.110   2.259
    1MOL     H5   12   2.105   2.463   2.325
    1MOL     H6   13   2.514   2.337   2.294
    1MOL     H7   14   2.323   2.472   2.186
    1MOL     H8   15   2.338   2.478   2.361
   4.52624   4.52624   4.52624
