ethyl_acetate
    14
  -2.4440000  -0.2300000  -0.7730000  -1.6440000  -0.2460000   0.4940000
  -1.8910000   1.8640000  -3.7230000  -2.5900000   0.8100000  -2.8900000
  -3.4150000  -0.9440000  -0.9800000  -1.9190000   0.6900000  -1.6320000
  -1.6900000   0.7350000   0.9750000  -0.6090000  -0.5200000   0.2760000
  -2.0630000  -0.9890000   1.1780000  -2.3800000   1.9810000  -4.6940000
  -1.8960000   2.8300000  -3.2060000  -0.8430000   1.5950000  -3.8850000
  -2.5640000  -0.1590000  -3.3970000  -3.6310000   1.0920000  -2.7080000
