; mobley_6973347_GMX.itp created by acpype (v: 2023.10.27) on Wed May 20 23:43:20 2026

[ atomtypes ]
;name   bond_type     mass     charge   ptype   sigma         epsilon       Amb
 c        c           0.00000  0.00000   A     3.31521e-01   4.13379e-01 ; 1.86  0.0988
 c3       c3          0.00000  0.00000   A     3.39771e-01   4.51035e-01 ; 1.91  0.1078
 o        o           0.00000  0.00000   A     3.04812e-01   6.12119e-01 ; 1.71  0.1463
 os       os          0.00000  0.00000   A     3.15610e-01   3.03758e-01 ; 1.77  0.0726
 hc       hc          0.00000  0.00000   A     2.60018e-01   8.70272e-02 ; 1.46  0.0208
 h1       h1          0.00000  0.00000   A     2.42200e-01   8.70272e-02 ; 1.36  0.0208

[ moleculetype ]
;name            nrexcl
 mobley_6973347   3

[ atoms ]
;   nr  type  resi  res  atom  cgnr     charge      mass       ; qtot   bond_type
     1    c     1   MOL    C1    1     0.630099     12.01000 ; qtot 0.630
     2   c3     1   MOL    C2    2    -0.150100     12.01000 ; qtot 0.480
     3   c3     1   MOL    C3    3    -0.100100     12.01000 ; qtot 0.380
     4   c3     1   MOL    C4    4     0.138400     12.01000 ; qtot 0.518
     5    o     1   MOL    O1    5    -0.544000     16.00000 ; qtot -0.026
     6   os     1   MOL    O2    6    -0.446900     16.00000 ; qtot -0.473
     7   hc     1   MOL    H1    7     0.075700      1.00800 ; qtot -0.397
     8   hc     1   MOL    H2    8     0.075700      1.00800 ; qtot -0.321
     9   hc     1   MOL    H3    9     0.075700      1.00800 ; qtot -0.246
    10   hc     1   MOL    H4   10     0.047367      1.00800 ; qtot -0.198
    11   hc     1   MOL    H5   11     0.047367      1.00800 ; qtot -0.151
    12   hc     1   MOL    H6   12     0.047367      1.00800 ; qtot -0.103
    13   h1     1   MOL    H7   13     0.051700      1.00800 ; qtot -0.052
    14   h1     1   MOL    H8   14     0.051700      1.00800 ; qtot -0.000

[ bonds ]
;   ai     aj funct   r             k
     1      2   1    1.5270e-01    1.9652e+05 ;     C1 - C2    
     1      5   1    1.2190e-01    4.9421e+05 ;     C1 - O1    
     1      6   1    1.3621e-01    2.9398e+05 ;     C1 - O2    
     2      7   1    1.0962e-01    2.8891e+05 ;     C2 - H1    
     2      8   1    1.0962e-01    2.8891e+05 ;     C2 - H2    
     2      9   1    1.0962e-01    2.8891e+05 ;     C2 - H3    
     3      4   1    1.5354e-01    1.9154e+05 ;     C3 - C4    
     3     10   1    1.0962e-01    2.8891e+05 ;     C3 - H4    
     3     11   1    1.0962e-01    2.8891e+05 ;     C3 - H5    
     3     12   1    1.0962e-01    2.8891e+05 ;     C3 - H6    
     4      6   1    1.4273e-01    2.3620e+05 ;     C4 - O2    
     4     13   1    1.0969e-01    2.8804e+05 ;     C4 - H7    
     4     14   1    1.0969e-01    2.8804e+05 ;     C4 - H8    

[ pairs ]
;   ai     aj    funct
     1      3      1 ;     C1 - C3    
     1     13      1 ;     C1 - H7    
     1     14      1 ;     C1 - H8    
     2      4      1 ;     C2 - C4    
     5      4      1 ;     O1 - C4    
     5      7      1 ;     O1 - H1    
     5      8      1 ;     O1 - H2    
     5      9      1 ;     O1 - H3    
     6      7      1 ;     O2 - H1    
     6      8      1 ;     O2 - H2    
     6      9      1 ;     O2 - H3    
     6     10      1 ;     O2 - H4    
     6     11      1 ;     O2 - H5    
     6     12      1 ;     O2 - H6    
    10     13      1 ;     H4 - H7    
    10     14      1 ;     H4 - H8    
    11     13      1 ;     H5 - H7    
    11     14      1 ;     H5 - H8    
    12     13      1 ;     H6 - H7    
    12     14      1 ;     H6 - H8    

[ angles ]
;   ai     aj     ak    funct   theta         cth
     1      2      7      1    1.0895e+02    3.6510e+02 ;     C1 - C2     - H1    
     1      2      8      1    1.0895e+02    3.6510e+02 ;     C1 - C2     - H2    
     1      2      9      1    1.0895e+02    3.6510e+02 ;     C1 - C2     - H3    
     1      6      4      1    1.1582e+02    7.4835e+02 ;     C1 - O2     - C4    
     2      1      5      1    1.2290e+02    6.3973e+02 ;     C2 - C1     - O1    
     2      1      6      1    1.1080e+02    6.5245e+02 ;     C2 - C1     - O2    
     3      4      6      1    1.0762e+02    6.4802e+02 ;     C3 - C4     - O2    
     3      4     13      1    1.0959e+02    3.6217e+02 ;     C3 - C4     - H7    
     3      4     14      1    1.0959e+02    3.6217e+02 ;     C3 - C4     - H8    
     4      3     10      1    1.0968e+02    3.6208e+02 ;     C4 - C3     - H4    
     4      3     11      1    1.0968e+02    3.6208e+02 ;     C4 - C3     - H5    
     4      3     12      1    1.0968e+02    3.6208e+02 ;     C4 - C3     - H6    
     5      1      6      1    1.2320e+02    8.4734e+02 ;     O1 - C1     - O2    
     6      4     13      1    1.1034e+02    4.7028e+02 ;     O2 - C4     - H7    
     6      4     14      1    1.1034e+02    4.7028e+02 ;     O2 - C4     - H8    
     7      2      8      1    1.0773e+02    2.9957e+02 ;     H1 - C2     - H2    
     7      2      9      1    1.0773e+02    2.9957e+02 ;     H1 - C2     - H3    
     8      2      9      1    1.0773e+02    2.9957e+02 ;     H2 - C2     - H3    
    10      3     11      1    1.0773e+02    2.9957e+02 ;     H4 - C3     - H5    
    10      3     12      1    1.0773e+02    2.9957e+02 ;     H4 - C3     - H6    
    11      3     12      1    1.0773e+02    2.9957e+02 ;     H5 - C3     - H6    
    13      4     14      1    1.0855e+02    2.9824e+02 ;     H7 - C4     - H8    

[ dihedrals ] ; propers
; for gromacs 4.5 or higher, using funct 9
;    i      j      k      l   func   phase     kd      pn
     1      6      4      3      9     0.00   1.60247   3 ;     C1-    O2-    C4-    C3
     1      6      4      3      9   180.00   3.34720   1 ;     C1-    O2-    C4-    C3
     1      6      4     13      9     0.00   1.60387   3 ;     C1-    O2-    C4-    H7
     1      6      4     14      9     0.00   1.60387   3 ;     C1-    O2-    C4-    H8
     2      1      6      4      9     0.00   3.13800   3 ;     C2-    C1-    O2-    C4
     2      1      6      4      9   180.00   7.90776   1 ;     C2-    C1-    O2-    C4
     2      1      6      4      9   180.00  13.76536   2 ;     C2-    C1-    O2-    C4
     5      1      2      7      9     0.00  16.86152   1 ;     O1-    C1-    C2-    H1
     5      1      2      7      9   180.00  15.31344   2 ;     O1-    C1-    C2-    H1
     5      1      2      8      9     0.00  16.86152   1 ;     O1-    C1-    C2-    H2
     5      1      2      8      9   180.00  15.31344   2 ;     O1-    C1-    C2-    H2
     5      1      2      9      9     0.00  16.86152   1 ;     O1-    C1-    C2-    H3
     5      1      2      9      9   180.00  15.31344   2 ;     O1-    C1-    C2-    H3
     5      1      6      4      9   180.00   5.85760   1 ;     O1-    C1-    O2-    C4
     5      1      6      4      9   180.00  11.29680   2 ;     O1-    C1-    O2-    C4
     6      1      2      7      9   180.00   0.00000   2 ;     O2-    C1-    C2-    H1
     6      1      2      8      9   180.00   0.00000   2 ;     O2-    C1-    C2-    H2
     6      1      2      9      9   180.00   0.00000   2 ;     O2-    C1-    C2-    H3
     6      4      3     10      9     0.00   0.00000   0 ;     O2-    C4-    C3-    H4
     6      4      3     10      9     0.00   1.04600   1 ;     O2-    C4-    C3-    H4
     6      4      3     11      9     0.00   0.00000   0 ;     O2-    C4-    C3-    H5
     6      4      3     11      9     0.00   1.04600   1 ;     O2-    C4-    C3-    H5
     6      4      3     12      9     0.00   0.00000   0 ;     O2-    C4-    C3-    H6
     6      4      3     12      9     0.00   1.04600   1 ;     O2-    C4-    C3-    H6
    10      3      4     13      9     0.00   0.65084   3 ;     H4-    C3-    C4-    H7
    10      3      4     14      9     0.00   0.65084   3 ;     H4-    C3-    C4-    H8
    11      3      4     13      9     0.00   0.65084   3 ;     H5-    C3-    C4-    H7
    11      3      4     14      9     0.00   0.65084   3 ;     H5-    C3-    C4-    H8
    12      3      4     13      9     0.00   0.65084   3 ;     H6-    C3-    C4-    H7
    12      3      4     14      9     0.00   0.65084   3 ;     H6-    C3-    C4-    H8

[ dihedrals ] ; impropers
; treated as propers in GROMACS to use correct AMBER analytical function
;    i      j      k      l   func   phase     kd      pn
     6      1      5      2      4   180.00   4.60240   2 ;     O2-    C1-    O1-    C2
