%VERSION  VERSION_STAMP = V0001.000  DATE = 05/20/26  23:43:21                  
%FLAG TITLE                                                                     
%FORMAT(20a4)                                                                   
ethyl_acetate                                                                   
%FLAG POINTERS                                                                  
%FORMAT(10I8)                                                                   
      14       6       8       5      17       5      23       8       0       0
      57       1       5       5       8       7      11      15       6       0
       0       0       0       0       0       0       0       0      14       0
       0
%FLAG ATOM_NAME                                                                 
%FORMAT(20a4)                                                                   
C1  C2  C3  C4  O1  O2  H1  H2  H3  H4  H5  H6  H7  H8  
%FLAG CHARGE                                                                    
%FORMAT(5E16.8)                                                                 
  1.15000935E+01 -2.73516723E+00 -1.82405223E+00  2.52196632E+00 -9.91293120E+00
 -8.14354587E+00  1.37942811E+00  1.37942811E+00  1.37942811E+00  8.63135684E-01
  8.63135684E-01  8.63135684E-01  9.42092910E-01  9.42092910E-01
%FLAG ATOMIC_NUMBER                                                             
%FORMAT(10I8)                                                                   
       6       6       6       6       8       8       1       1       1       1
       1       1       1       1
%FLAG MASS                                                                      
%FORMAT(5E16.8)                                                                 
  1.20100000E+01  1.20100000E+01  1.20100000E+01  1.20100000E+01  1.60000000E+01
  1.60000000E+01  1.00800000E+00  1.00800000E+00  1.00800000E+00  1.00800000E+00
  1.00800000E+00  1.00800000E+00  1.00800000E+00  1.00800000E+00
%FLAG ATOM_TYPE_INDEX                                                           
%FORMAT(10I8)                                                                   
       1       2       2       2       3       4       5       5       5       5
       5       5       6       6
%FLAG NUMBER_EXCLUDED_ATOMS                                                     
%FORMAT(10I8)                                                                   
      10       6       7       7       4       8       2       1       1       4
       3       2       1       1
%FLAG NONBONDED_PARM_INDEX                                                      
%FORMAT(10I8)                                                                   
       1       2       4       7      11      16       2       3       5       8
      12      17       4       5       6       9      13      18       7       8
       9      10      14      19      11      12      13      14      15      20
      16      17      18      19      20      21
%FLAG RESIDUE_LABEL                                                             
%FORMAT(20a4)                                                                   
MOL 
%FLAG RESIDUE_POINTER                                                           
%FORMAT(10I8)                                                                   
       1
%FLAG BOND_FORCE_CONSTANT                                                       
%FORMAT(5E16.8)                                                                 
  2.34850000E+02  5.90600000E+02  3.51310000E+02  3.45250000E+02  2.28890000E+02
  2.82270000E+02  3.44220000E+02
%FLAG BOND_EQUIL_VALUE                                                          
%FORMAT(5E16.8)                                                                 
  1.52700000E+00  1.21900000E+00  1.36210000E+00  1.09620000E+00  1.53540000E+00
  1.42730000E+00  1.09690000E+00
%FLAG ANGLE_FORCE_CONSTANT                                                      
%FORMAT(5E16.8)                                                                 
  4.36300000E+01  8.94300000E+01  7.64500000E+01  7.79700000E+01  7.74400000E+01
  4.32800000E+01  4.32700000E+01  1.01260000E+02  5.62000000E+01  3.58000000E+01
  3.56400000E+01
%FLAG ANGLE_EQUIL_VALUE                                                         
%FORMAT(5E16.8)                                                                 
  1.90153704E+00  2.02144121E+00  2.14501057E+00  1.93382564E+00  1.87832415E+00
  1.91270715E+00  1.91427794E+00  2.15024656E+00  1.92579712E+00  1.88024401E+00
  1.89455572E+00
%FLAG DIHEDRAL_FORCE_CONSTANT                                                   
%FORMAT(5E16.8)                                                                 
  8.00000000E-01  3.83000000E-01  3.83333333E-01  1.89000000E+00  3.29000000E+00
  7.50000000E-01  1.40000000E+00  2.70000000E+00  4.03000000E+00  3.66000000E+00
  0.00000000E+00  2.50000000E-01  0.00000000E+00  1.55555556E-01  1.10000000E+00
%FLAG DIHEDRAL_PERIODICITY                                                      
%FORMAT(5E16.8)                                                                 
  1.00000000E+00  3.00000000E+00  3.00000000E+00  1.00000000E+00  2.00000000E+00
  3.00000000E+00  1.00000000E+00  2.00000000E+00  1.00000000E+00  2.00000000E+00
  2.00000000E+00  1.00000000E+00  3.00000000E+00  3.00000000E+00  2.00000000E+00
%FLAG DIHEDRAL_PHASE                                                            
%FORMAT(5E16.8)                                                                 
  3.14159400E+00  0.00000000E+00  0.00000000E+00  3.14159400E+00  3.14159400E+00
  0.00000000E+00  3.14159400E+00  3.14159400E+00  0.00000000E+00  3.14159400E+00
  3.14159400E+00  0.00000000E+00  0.00000000E+00  0.00000000E+00  3.14159400E+00
%FLAG SCEE_SCALE_FACTOR                                                         
%FORMAT(5E16.8)                                                                 
  1.20000000E+00  1.20000000E+00  1.20000000E+00  1.20000000E+00  1.20000000E+00
  1.20000000E+00  1.20000000E+00  1.20000000E+00  1.20000000E+00  1.20000000E+00
  1.20000000E+00  1.20000000E+00  1.20000000E+00  1.20000000E+00  0.00000000E+00
%FLAG SCNB_SCALE_FACTOR                                                         
%FORMAT(5E16.8)                                                                 
  2.00000000E+00  2.00000000E+00  2.00000000E+00  2.00000000E+00  2.00000000E+00
  2.00000000E+00  2.00000000E+00  2.00000000E+00  2.00000000E+00  2.00000000E+00
  2.00000000E+00  2.00000000E+00  2.00000000E+00  2.00000000E+00  0.00000000E+00
%FLAG SOLTY                                                                     
%FORMAT(5E16.8)                                                                 
  0.00000000E+00  0.00000000E+00  0.00000000E+00  0.00000000E+00  0.00000000E+00
  0.00000000E+00
%FLAG LENNARD_JONES_ACOEF                                                       
%FORMAT(5E16.8)                                                                 
  6.96551276E+05  8.43969952E+05  1.02073671E+06  5.17507491E+05  6.30925504E+05
  3.76435470E+05  4.46121722E+05  5.42502534E+05  3.27367585E+05  2.83662575E+05
  8.12662403E+04  1.00235148E+05  5.68021765E+04  5.02224902E+04  7.94617769E+03
  5.63013422E+04  6.97998263E+04  3.86646725E+04  3.44374471E+04  5.22955465E+03
  3.39005767E+03
%FLAG LENNARD_JONES_BCOEF                                                       
%FORMAT(5E16.8)                                                                 
  5.24668528E+02  5.90251928E+02  6.63431737E+02  4.98871431E+02  5.62969425E+02
  4.69350655E+02  3.88758656E+02  4.38146883E+02  3.67361018E+02  2.87011518E+02
  1.21392023E+02  1.37787728E+02  1.11953944E+02  8.83545880E+01  2.57122925E+01
  1.01040256E+02  1.14981426E+02  9.23664132E+01  7.31636661E+01  2.08590256E+01
  1.67944276E+01
%FLAG BONDS_INC_HYDROGEN                                                        
%FORMAT(10I8)                                                                   
       3      18       4       3      21       4       3      24       4       6
      27       4       6      30       4       6      33       4       9      36
       7       9      39       7
%FLAG BONDS_WITHOUT_HYDROGEN                                                    
%FORMAT(10I8)                                                                   
       0       3       1       0      12       2       0      15       3       6
       9       5       9      15       6
%FLAG ANGLES_INC_HYDROGEN                                                       
%FORMAT(10I8)                                                                   
       0       3      18       1       0       3      21       1       0       3
      24       1       6       9      36       6       6       9      39       6
       9       6      27       7       9       6      30       7       9       6
      33       7      15       9      36       9      15       9      39       9
      18       3      21      10      18       3      24      10      21       3
      24      10      27       6      30      10      27       6      33      10
      30       6      33      10      36       9      39      11
%FLAG ANGLES_WITHOUT_HYDROGEN                                                   
%FORMAT(10I8)                                                                   
       0      15       9       2       3       0      12       3       3       0
      15       4       6       9      15       5      12       0      15       8
%FLAG DIHEDRALS_INC_HYDROGEN                                                    
%FORMAT(10I8)                                                                   
       0      15       9      36       3       0      15       9      39       3
      12       0       3      18       9      12       0      -3      18      10
      12       0       3      21       9      12       0      -3      21      10
      12       0       3      24       9      12       0      -3      24      10
      15       0       3      18      11      15       0       3      21      11
      15       0       3      24      11      15       9       6      27      12
      15       9      -6      27      13      15       9       6      30      12
      15       9      -6      30      13      15       9       6      33      12
      15       9      -6      33      13      27       6       9      36      14
      27       6       9      39      14      30       6       9      36      14
      30       6       9      39      14      33       6       9      36      14
      33       6       9      39      14
%FLAG DIHEDRALS_WITHOUT_HYDROGEN                                                
%FORMAT(10I8)                                                                   
       0      15       9       6       1       0      15      -9       6       2
       3       0      15       9       4       3       0     -15       9       5
       3       0     -15       9       6      12       0      15       9       7
      12       0     -15       9       8      15       0     -12      -3      15
%FLAG EXCLUDED_ATOMS_LIST                                                       
%FORMAT(10I8)                                                                   
       2       3       4       5       6       7       8       9      13      14
       4       5       6       7       8       9       4       6      10      11
      12      13      14       5       6      10      11      12      13      14
       6       7       8       9       7       8       9      10      11      12
      13      14       8       9       9       0      11      12      13      14
      12      13      14      13      14      14       0
%FLAG HBOND_ACOEF                                                               
%FORMAT(5E16.8)                                                                 

%FLAG HBOND_BCOEF                                                               
%FORMAT(5E16.8)                                                                 

%FLAG HBCUT                                                                     
%FORMAT(5E16.8)                                                                 

%FLAG AMBER_ATOM_TYPE                                                           
%FORMAT(20a4)                                                                   
c   c3  c3  c3  o   os  hc  hc  hc  hc  hc  hc  h1  h1  
%FLAG TREE_CHAIN_CLASSIFICATION                                                 
%FORMAT(20a4)                                                                   
BLA BLA BLA BLA BLA BLA BLA BLA BLA BLA BLA BLA BLA BLA 
%FLAG JOIN_ARRAY                                                                
%FORMAT(10I8)                                                                   
       0       0       0       0       0       0       0       0       0       0
       0       0       0       0
%FLAG IROTAT                                                                    
%FORMAT(10I8)                                                                   
       0       0       0       0       0       0       0       0       0       0
       0       0       0       0
%FLAG RADIUS_SET                                                                
%FORMAT(1a80)                                                                   
modified Bondi radii (mbondi)                                                   
%FLAG RADII                                                                     
%FORMAT(5E16.8)                                                                 
  1.70000000E+00  1.70000000E+00  1.70000000E+00  1.70000000E+00  1.50000000E+00
  1.50000000E+00  1.30000000E+00  1.30000000E+00  1.30000000E+00  1.30000000E+00
  1.30000000E+00  1.30000000E+00  1.30000000E+00  1.30000000E+00
%FLAG SCREEN                                                                    
%FORMAT(5E16.8)                                                                 
  7.20000000E-01  7.20000000E-01  7.20000000E-01  7.20000000E-01  8.50000000E-01
  8.50000000E-01  8.50000000E-01  8.50000000E-01  8.50000000E-01  8.50000000E-01
  8.50000000E-01  8.50000000E-01  8.50000000E-01  8.50000000E-01
%FLAG IPOL                                                                      
%FORMAT(1I8)                                                                    
       0
