%VERSION  VERSION_STAMP = V0001.000  DATE = 05/20/26  23:57:55                  
%FLAG TITLE                                                                     
%FORMAT(20a4)                                                                   
TMP                                                                             
%FLAG POINTERS                                                                  
%FORMAT(10I8)                                                                   
      22       2      10      13      20      16      42      22       0       0
     108       1      13      16      22       4       6       3       3       0
       0       0       0       0       0       0       0       0      22       0
       0
%FLAG ATOM_NAME                                                                 
%FORMAT(20a4)                                                                   
C1  C2  C3  C4  C5  C6  C7  C8  C9  C10 C11 C12 H1  H2  H3  H4  H5  H6  H7  H8  
H9  H10 
%FLAG CHARGE                                                                    
%FORMAT(5E16.8)                                                                 
 -2.33245440E+00 -2.38712130E+00 -2.16845370E+00 -6.74225100E-01 -2.16845370E+00
 -2.38712130E+00 -6.74225100E-01 -2.16845370E+00 -2.38712130E+00 -2.33245440E+00
 -2.38712130E+00 -2.16845370E+00  2.38712130E+00  2.40534360E+00  2.46001050E+00
  2.46001050E+00  2.40534360E+00  2.46001050E+00  2.40534360E+00  2.38712130E+00
  2.40534360E+00  2.46001050E+00
%FLAG ATOMIC_NUMBER                                                             
%FORMAT(10I8)                                                                   
       6       6       6       6       6       6       6       6       6       6
       6       6       1       1       1       1       1       1       1       1
       1       1
%FLAG MASS                                                                      
%FORMAT(5E16.8)                                                                 
  1.20100000E+01  1.20100000E+01  1.20100000E+01  1.20100000E+01  1.20100000E+01
  1.20100000E+01  1.20100000E+01  1.20100000E+01  1.20100000E+01  1.20100000E+01
  1.20100000E+01  1.20100000E+01  1.00800000E+00  1.00800000E+00  1.00800000E+00
  1.00800000E+00  1.00800000E+00  1.00800000E+00  1.00800000E+00  1.00800000E+00
  1.00800000E+00  1.00800000E+00
%FLAG ATOM_TYPE_INDEX                                                           
%FORMAT(10I8)                                                                   
       1       1       1       1       1       1       1       1       1       1
       1       1       2       2       2       2       2       2       2       2
       2       2
%FLAG NUMBER_EXCLUDED_ATOMS                                                     
%FORMAT(10I8)                                                                   
      10       9      10      13       8       5      11       8       7       7
       5       4       2       1       1       1       1       1       1       1
       1       1
%FLAG NONBONDED_PARM_INDEX                                                      
%FORMAT(10I8)                                                                   
       1       2       2       3
%FLAG RESIDUE_LABEL                                                             
%FORMAT(20a4)                                                                   
MOL 
%FLAG RESIDUE_POINTER                                                           
%FORMAT(10I8)                                                                   
       1
%FLAG BOND_FORCE_CONSTANT                                                       
%FORMAT(5E16.8)                                                                 
  3.54250000E+02  3.60690000E+02  3.46070000E+02  2.69370000E+02
%FLAG BOND_EQUIL_VALUE                                                          
%FORMAT(5E16.8)                                                                 
  1.39860000E+00  1.08600000E+00  1.40560000E+00  1.48290000E+00
%FLAG ANGLE_FORCE_CONSTANT                                                      
%FORMAT(5E16.8)                                                                 
  6.36700000E+01  4.49000000E+01  6.33300000E+01  6.37900000E+01  6.13000000E+01
  4.47300000E+01
%FLAG ANGLE_EQUIL_VALUE                                                         
%FORMAT(5E16.8)                                                                 
  2.09474507E+00  2.09230160E+00  2.10713691E+00  2.06664525E+00  2.11359463E+00
  2.09125441E+00
%FLAG DIHEDRAL_FORCE_CONSTANT                                                   
%FORMAT(5E16.8)                                                                 
  3.62500000E+00  7.65000000E-01  1.10000000E+00
%FLAG DIHEDRAL_PERIODICITY                                                      
%FORMAT(5E16.8)                                                                 
  2.00000000E+00  2.00000000E+00  2.00000000E+00
%FLAG DIHEDRAL_PHASE                                                            
%FORMAT(5E16.8)                                                                 
  3.14159400E+00  3.14159400E+00  3.14159400E+00
%FLAG SCEE_SCALE_FACTOR                                                         
%FORMAT(5E16.8)                                                                 
  1.20000000E+00  1.20000000E+00  0.00000000E+00
%FLAG SCNB_SCALE_FACTOR                                                         
%FORMAT(5E16.8)                                                                 
  2.00000000E+00  2.00000000E+00  0.00000000E+00
%FLAG SOLTY                                                                     
%FORMAT(5E16.8)                                                                 
  0.00000000E+00  0.00000000E+00  0.00000000E+00
%FLAG LENNARD_JONES_ACOEF                                                       
%FORMAT(5E16.8)                                                                 
  6.96551276E+05  7.52549148E+04  6.90855956E+03
%FLAG LENNARD_JONES_BCOEF                                                       
%FORMAT(5E16.8)                                                                 
  5.24668528E+02  1.09570372E+02  2.10929191E+01
%FLAG BONDS_INC_HYDROGEN                                                        
%FORMAT(10I8)                                                                   
       0      36       2       3      39       2       6      42       2      12
      45       2      15      48       2      21      51       2      24      54
       2      27      57       2      30      60       2      33      63       2
%FLAG BONDS_WITHOUT_HYDROGEN                                                    
%FORMAT(10I8)                                                                   
       0       3       1       0      15       1       3       6       1       6
       9       3       9      12       3       9      18       4      12      15
       1      18      21       3      18      33       3      21      24       1
      24      27       1      27      30       1      30      33       1
%FLAG ANGLES_INC_HYDROGEN                                                       
%FORMAT(10I8)                                                                   
       0       3      39       2       0      15      48       2       3       0
      36       2       3       6      42       2       6       3      39       2
       9       6      42       6       9      12      45       6      12      15
      48       2      15       0      36       2      15      12      45       2
      18      21      51       6      18      33      63       6      21      24
      54       2      24      21      51       2      24      27      57       2
      27      24      54       2      27      30      60       2      30      27
      57       2      30      33      63       2      33      30      60       2
%FLAG ANGLES_WITHOUT_HYDROGEN                                                   
%FORMAT(10I8)                                                                   
       0       3       6       1       0      15      12       1       3       0
      15       1       3       6       9       3       6       9      12       4
       6       9      18       5       9      12      15       3       9      18
      21       5       9      18      33       5      12       9      18       5
      18      21      24       3      18      33      30       3      21      18
      33       4      21      24      27       1      24      27      30       1
      27      30      33       1
%FLAG DIHEDRALS_INC_HYDROGEN                                                    
%FORMAT(10I8)                                                                   
       0       3       6      42       1       0      15      12      45       1
       3       0      15      48       1      36       0       3       6       1
       6       9      12      45       1       9       6       3      39       1
       9      12      15      48       1       9      18      21      51       1
       9      18      33      63       1      12       9       6      42       1
      36       0      15      12       1      15       0       3      39       1
      18       9       6      42       1      18       9      12      45       1
      18      21      24      54       1      18      33      30      60       1
      21      18      33      63       1      21      24      27      57       1
      24      27      30      60       1      27      24      21      51       1
      27      30      33      63       1      30      27      24      54       1
      33      18      21      51       1      33      30      27      57       1
      36       0       3      39       1      36       0      15      48       1
      39       3       6      42       1      45      12      15      48       1
      51      21      24      54       1      54      24      27      57       1
      57      27      30      60       1      60      30      33      63       1
      36       0     -15      -3       3       0       6      -3     -39       3
       3       9      -6     -42       3      15       9     -12     -45       3
       0      12     -15     -48       3      24      18     -21     -51       3
      21      27     -24     -54       3      24      30     -27     -57       3
      27      33     -30     -60       3      30      18     -33     -63       3
%FLAG DIHEDRALS_WITHOUT_HYDROGEN                                                
%FORMAT(10I8)                                                                   
       0       3       6       9       1       0      15     -12       9       1
       3       0      15      12       1       3       6      -9      12       1
       3       6       9      18       1      15       0       3       6       1
       6       9     -12      15       1       6       9      18      21       2
       6       9      18      33       2       9      18      21      24       1
       9      18      33      30       1      12       9      18      21       2
      12       9      18      33       2      15      12       9      18       1
      18      21      24      27       1      18      33     -30      27       1
      21      18      33      30       1      21      24     -27      30       1
      24      21      18      33       1      24      27     -30      33       1
       6      12      -9     -18       3      21      33     -18      -9       3
%FLAG EXCLUDED_ATOMS_LIST                                                       
%FORMAT(10I8)                                                                   
       2       3       4       5       6      13      14      15      16      17
       3       4       5       6       7      13      14      15      17       4
       5       6       7       8      12      13      14      15      16       5
       6       7       8       9      11      12      14      15      16      17
      18      22       6       7       8      12      13      15      16      17
       7      13      14      16      17       8       9      10      11      12
      15      16      18      19      21      22       9      10      11      12
      18      19      20      22      10      11      12      18      19      20
      21      11      12      18      19      20      21      22      12      19
      20      21      22      18      20      21      22      14      17      15
       0      17       0      19      20      21      22       0
%FLAG HBOND_ACOEF                                                               
%FORMAT(5E16.8)                                                                 

%FLAG HBOND_BCOEF                                                               
%FORMAT(5E16.8)                                                                 

%FLAG HBCUT                                                                     
%FORMAT(5E16.8)                                                                 

%FLAG AMBER_ATOM_TYPE                                                           
%FORMAT(20a4)                                                                   
ca  ca  ca  cp  ca  ca  cp  ca  ca  ca  ca  ca  ha  ha  ha  ha  ha  ha  ha  ha  
ha  ha  
%FLAG TREE_CHAIN_CLASSIFICATION                                                 
%FORMAT(20a4)                                                                   
BLA BLA BLA BLA BLA BLA BLA BLA BLA BLA BLA BLA BLA BLA BLA BLA BLA BLA BLA BLA 
BLA BLA 
%FLAG JOIN_ARRAY                                                                
%FORMAT(10I8)                                                                   
       0       0       0       0       0       0       0       0       0       0
       0       0       0       0       0       0       0       0       0       0
       0       0
%FLAG IROTAT                                                                    
%FORMAT(10I8)                                                                   
       0       0       0       0       0       0       0       0       0       0
       0       0       0       0       0       0       0       0       0       0
       0       0
%FLAG RADIUS_SET                                                                
%FORMAT(1a80)                                                                   
modified Bondi radii (mbondi)                                                   
%FLAG RADII                                                                     
%FORMAT(5E16.8)                                                                 
  1.70000000E+00  1.70000000E+00  1.70000000E+00  1.70000000E+00  1.70000000E+00
  1.70000000E+00  1.70000000E+00  1.70000000E+00  1.70000000E+00  1.70000000E+00
  1.70000000E+00  1.70000000E+00  1.30000000E+00  1.30000000E+00  1.30000000E+00
  1.30000000E+00  1.30000000E+00  1.30000000E+00  1.30000000E+00  1.30000000E+00
  1.30000000E+00  1.30000000E+00
%FLAG SCREEN                                                                    
%FORMAT(5E16.8)                                                                 
  7.20000000E-01  7.20000000E-01  7.20000000E-01  7.20000000E-01  7.20000000E-01
  7.20000000E-01  7.20000000E-01  7.20000000E-01  7.20000000E-01  7.20000000E-01
  7.20000000E-01  7.20000000E-01  8.50000000E-01  8.50000000E-01  8.50000000E-01
  8.50000000E-01  8.50000000E-01  8.50000000E-01  8.50000000E-01  8.50000000E-01
  8.50000000E-01  8.50000000E-01
%FLAG IPOL                                                                      
%FORMAT(1I8)                                                                    
       0
