mobley_2005792_GMX.gro created by acpype (v: 2023.10.27) on Wed May 20 23:57:53 2026
 22
    1  MOL   C1    1  -0.133  -0.634  -0.112
    1  MOL   C2    2  -0.076  -0.566  -0.219
    1  MOL   C3    3   0.039  -0.488  -0.200
    1  MOL   C4    4   0.098  -0.476  -0.074
    1  MOL   C5    5   0.039  -0.546   0.033
    1  MOL   C6    6  -0.075  -0.624   0.014
    1  MOL   C7    7   0.219  -0.394  -0.053
    1  MOL   C8    8   0.330  -0.405  -0.140
    1  MOL   C9    9   0.444  -0.327  -0.120
    1  MOL  C10   10   0.450  -0.237  -0.015
    1  MOL  C11   11   0.342  -0.224   0.072
    1  MOL  C12   12   0.228  -0.302   0.053
    1  MOL   H1   13  -0.222  -0.695  -0.127
    1  MOL   H2   14  -0.121  -0.573  -0.318
    1  MOL   H3   15   0.080  -0.435  -0.286
    1  MOL   H4   16   0.083  -0.541   0.133
    1  MOL   H5   17  -0.119  -0.677   0.098
    1  MOL   H6   18   0.329  -0.476  -0.222
    1  MOL   H7   19   0.529  -0.338  -0.188
    1  MOL   H8   20   0.539  -0.176  -0.000
    1  MOL   H9   21   0.346  -0.153   0.154
    1  MOL  H10   22   0.144  -0.289   0.121
   15.21400    10.82600     9.44200
