; mobley_2005792_GMX_OPLS.top created by acpype (v: 2023.10.27) on Wed May 20 23:57:53 2026

; Include forcefield parameters
#include "ffoplsaa.itp"

; Include mobley_2005792_GMX.itp topology
#include "mobley_2005792_GMX.itp"

; Ligand position restraints
#ifdef POSRES_LIG
#include "posre_mobley_2005792.itp"
#endif

[ system ]
 mobley_2005792

[ molecules ]
; Compound        nmols
 mobley_2005792   1     
