TMP
    22
  -1.3270000  -6.3390000  -1.1210000  -0.7590000  -5.6580000  -2.1940000
   0.3850000  -4.8790000  -2.0030000   0.9840000  -4.7640000  -0.7360000
   0.3930000  -5.4610000   0.3330000  -0.7510000  -6.2410000   0.1420000
   2.1920000  -3.9410000  -0.5340000   3.2990000  -4.0510000  -1.3950000
   4.4430000  -3.2720000  -1.2040000   4.5030000  -2.3660000  -0.1490000
   3.4190000  -2.2390000   0.7160000   2.2750000  -3.0190000   0.5250000
  -2.2160000  -6.9450000  -1.2700000  -1.2060000  -5.7300000  -3.1820000
   0.8000000  -4.3500000  -2.8600000   0.8250000  -5.4120000   1.3310000
  -1.1900000  -6.7730000   0.9820000   3.2860000  -4.7580000  -2.2220000
   5.2880000  -3.3750000  -1.8790000   5.3910000  -1.7600000  -0.0000000
   3.4600000  -1.5320000   1.5390000   1.4400000  -2.8900000   1.2110000
