mobley_4630641_GMX.gro created by acpype (v: 2023.10.27) on Wed May 20 23:52:06 2026
 9997
    1MOL     C1    1   2.524   2.455   2.522
    1MOL     C2    2   2.165   2.150   2.244
    1MOL     C3    3   2.403   2.420   2.323
    1MOL     C4    4   2.277   2.356   2.267
    1MOL     O1    5   2.407   2.399   2.464
    1MOL     O2    6   2.281   2.216   2.293
    1MOL     H1    7   2.505   2.478   2.627
    1MOL     H2    8   2.551   2.546   2.467
    1MOL     H3    9   2.605   2.383   2.515
    1MOL     H4   10   2.096   2.225   2.204
    1MOL     H5   11   2.118   2.095   2.325
    1MOL     H6   12   2.194   2.081   2.164
    1MOL     H7   13   2.403   2.528   2.305
    1MOL     H8   14   2.492   2.375   2.279
    1MOL     H9   15   2.271   2.370   2.159
    1MOL    H10   16   2.188   2.397   2.315
    2SOL     OW   17   0.230   0.628   0.113
    2SOL    HW1   18   0.137   0.626   0.150
    2SOL    HW2   19   0.231   0.589   0.021
    3SOL     OW   20   0.225   0.275   0.996
    3SOL    HW1   21   0.260   0.258   1.088
    3SOL    HW2   22   0.137   0.230   0.984
    4SOL     OW   23   0.019   0.368   0.647
    4SOL    HW1   24  -0.063   0.411   0.686
    4SOL    HW2   25  -0.009   0.295   0.584
    5SOL     OW   26   0.569   1.275   1.165
    5SOL    HW1   27   0.476   1.268   1.128
    5SOL    HW2   28   0.580   1.364   1.209
    6SOL     OW   29   1.555   1.511   0.703
    6SOL    HW1   30   1.498   1.495   0.784
    6SOL    HW2   31   1.496   1.521   0.623
    7SOL     OW   32   1.135   0.703   0.717
    7SOL    HW1   33   1.192   0.781   0.692
    7SOL    HW2   34   1.075   0.729   0.793
    8SOL     OW   35   1.755   0.607   0.231
    8SOL    HW1   36   1.743   0.594   0.132
    8SOL    HW2   37   1.725   0.526   0.280
    9SOL     OW   38   0.768   1.144   1.023
    9SOL    HW1   39   0.690   1.161   1.083
    9SOL    HW2   40   0.802   1.231   0.987
   10SOL     OW   41   0.850   0.798   1.823
   10SOL    HW1   42   0.846   0.874   1.888
   10SOL    HW2   43   0.872   0.834   1.732
   11SOL     OW   44   0.685   1.012   0.665
   11SOL    HW1   45   0.754   0.996   0.735
   11SOL    HW2   46   0.612   1.069   0.703
   12SOL     OW   47   0.686   1.161   1.803
   12SOL    HW1   48   0.746   1.240   1.817
   12SOL    HW2   49   0.600   1.192   1.762
   13SOL     OW   50   0.335   1.435   1.061
   13SOL    HW1   51   0.257   1.404   1.008
   13SOL    HW2   52   0.393   1.493   1.004
   14SOL     OW   53   1.460   1.505   1.339
   14SOL    HW1   54   1.484   1.599   1.365
   14SOL    HW2   55   1.444   1.451   1.421
   15SOL     OW   56   0.438   0.392   1.499
   15SOL    HW1   57   0.520   0.336   1.508
   15SOL    HW2   58   0.357   0.334   1.503
   16SOL     OW   59   1.603   0.447   0.737
   16SOL    HW1   60   1.529   0.493   0.687
   16SOL    HW2   61   1.654   0.515   0.790
   17SOL     OW   62   0.231   1.713   0.483
   17SOL    HW1   63   0.265   1.790   0.537
   17SOL    HW2   64   0.275   1.713   0.393
   18SOL     OW   65   1.127   1.341   1.690
   18SOL    HW1   66   1.174   1.341   1.778
   18SOL    HW2   67   1.079   1.254   1.679
   19SOL     OW   68   0.230   1.434   0.538
   19SOL    HW1   69   0.204   1.530   0.538
   19SOL    HW2   70   0.159   1.380   0.583
   20SOL     OW   71   0.240   1.091   0.886
   20SOL    HW1   72   0.254   1.007   0.938
   20SOL    HW2   73   0.185   1.155   0.941
   21SOL     OW   74   0.620   1.786   1.439
   21SOL    HW1   75   0.528   1.769   1.474
   21SOL    HW2   76   0.648   1.878   1.465
   22SOL     OW   77   0.606   0.964   0.123
   22SOL    HW1   78   0.613   1.048   0.069
   22SOL    HW2   79   0.652   0.977   0.211
   23SOL     OW   80   1.594   0.114   1.480
   23SOL    HW1   81   1.576   0.181   1.408
   23SOL    HW2   82   1.591   0.160   1.569
   24SOL     OW   83   0.122   0.643   0.563
   24SOL    HW1   84   0.077   0.555   0.580
   24SOL    HW2   85   0.121   0.697   0.647
   25SOL     OW   86   1.842   1.767   0.359
   25SOL    HW1   87   1.896   1.738   0.439
   25SOL    HW2   88   1.872   1.857   0.330
   26SOL     OW   89   0.027   1.596   0.117
   26SOL    HW1   90   0.008   1.500   0.138
   26SOL    HW2   91  -0.006   1.654   0.192
   27SOL     OW   92   1.689   0.922   0.612
   27SOL    HW1   93   1.784   0.893   0.620
   27SOL    HW2   94   1.681   0.987   0.537
   28SOL     OW   95   1.641   1.108   0.432
   28SOL    HW1   96   1.727   1.110   0.380
   28SOL    HW2   97   1.655   1.155   0.520
   29SOL     OW   98   0.113   0.737   1.597
   29SOL    HW1   99   0.201   0.724   1.642
   29SOL    HW2  100   0.100   0.834   1.575
   30SOL     OW  101   0.613   1.365   0.726
   30SOL    HW1  102   0.564   1.278   0.735
   30SOL    HW2  103   0.590   1.408   0.639
   31SOL     OW  104   1.293   1.228   1.423
   31SOL    HW1  105   1.330   1.155   1.365
   31SOL    HW2  106   1.345   1.233   1.508
   32SOL     OW  107   0.809   0.004   0.502
   32SOL    HW1  108   0.849   0.095   0.493
   32SOL    HW2  109   0.709   0.012   0.508
   33SOL     OW  110   0.197   0.976   1.264
   33SOL    HW1  111   0.286   0.931   1.250
   33SOL    HW2  112   0.124   0.911   1.245
   34SOL     OW  113   1.525   0.999   0.190
   34SOL    HW1  114   1.462   0.923   0.203
   34SOL    HW2  115   1.573   1.017   0.276
   35SOL     OW  116   1.187   1.792   1.616
   35SOL    HW1  117   1.211   1.852   1.540
   35SOL    HW2  118   1.194   1.697   1.586
   36SOL     OW  119   0.317   0.251   1.801
   36SOL    HW1  120   0.388   0.322   1.807
   36SOL    HW2  121   0.229   0.290   1.829
   37SOL     OW  122   1.466   1.417   0.953
   37SOL    HW1  123   1.407   1.423   1.033
   37SOL    HW2  124   1.451   1.329   0.907
   38SOL     OW  125   1.667   1.714   0.572
   38SOL    HW1  126   1.626   1.691   0.484
   38SOL    HW2  127   1.649   1.640   0.637
   39SOL     OW  128   0.598   0.729   0.270
   39SOL    HW1  129   0.622   0.798   0.202
   39SOL    HW2  130   0.520   0.762   0.324
   40SOL     OW  131   1.281   0.345   0.944
   40SOL    HW1  132   1.195   0.295   0.931
   40SOL    HW2  133   1.343   0.291   1.000
   41SOL     OW  134   1.576   1.662   0.307
   41SOL    HW1  135   1.665   1.708   0.310
   41SOL    HW2  136   1.555   1.638   0.212
   42SOL     OW  137   0.807   0.605   1.465
   42SOL    HW1  138   0.760   0.602   1.554
   42SOL    HW2  139   0.756   0.550   1.399
   43SOL     OW  140   1.394   0.469   1.674
   43SOL    HW1  141   1.374   0.512   1.762
   43SOL    HW2  142   1.472   0.407   1.683
   44SOL     OW  143   0.973   0.890   1.572
   44SOL    HW1  144   1.019   0.806   1.543
   44SOL    HW2  145   0.917   0.924   1.497
   45SOL     OW  146   0.991   0.410   1.242
   45SOL    HW1  147   0.914   0.444   1.296
   45SOL    HW2  148   0.957   0.359   1.163
   46SOL     OW  149   1.041   0.701   0.429
   46SOL    HW1  150   1.067   0.697   0.525
   46SOL    HW2  151   0.956   0.650   0.415
   47SOL     OW  152   0.076   0.811   0.789
   47SOL    HW1  153   0.175   0.799   0.798
   47SOL    HW2  154   0.052   0.906   0.810
   48SOL     OW  155   0.130   1.821   1.571
   48SOL    HW1  156   0.120   1.806   1.670
   48SOL    HW2  157   0.044   1.857   1.535
   49SOL     OW  158   0.865   0.348   0.195
   49SOL    HW1  159   0.924   0.411   0.146
   49SOL    HW2  160   0.884   0.254   0.166
   50SOL     OW  161   1.719   0.585   1.831
   50SOL    HW1  162   1.693   0.674   1.795
   50SOL    HW2  163   1.717   0.517   1.758
   51SOL     OW  164   1.362   1.144   0.545
   51SOL    HW1  165   1.445   1.115   0.497
   51SOL    HW2  166   1.313   1.211   0.489
   52SOL     OW  167   0.550   0.196   0.885
   52SOL    HW1  168   0.545   0.191   0.985
   52SOL    HW2  169   0.552   0.292   0.856
   53SOL     OW  170   1.008   1.456   0.477
   53SOL    HW1  171   0.962   1.528   0.425
   53SOL    HW2  172   1.004   1.476   0.575
   54SOL     OW  173   0.351   1.801   0.853
   54SOL    HW1  174   0.401   1.715   0.859
   54SOL    HW2  175   0.416   1.878   0.850
   55SOL     OW  176   1.795   1.066   0.873
   55SOL    HW1  177   1.733   1.051   0.797
   55SOL    HW2  178   1.743   1.077   0.958
   56SOL     OW  179   1.227   1.550   1.506
   56SOL    HW1  180   1.233   1.473   1.570
   56SOL    HW2  181   1.175   1.524   1.426
   57SOL     OW  182   0.321   0.943   0.242
   57SOL    HW1  183   0.403   0.982   0.200
   57SOL    HW2  184   0.294   0.861   0.193
   58SOL     OW  185   1.458   0.735   0.728
   58SOL    HW1  186   1.453   0.670   0.803
   58SOL    HW2  187   1.538   0.794   0.741
   59SOL     OW  188   0.461   1.266   1.727
   59SOL    HW1  189   0.411   1.267   1.641
   59SOL    HW2  190   0.398   1.248   1.803
   60SOL     OW  191   1.111   1.776   0.237
   60SOL    HW1  192   1.051   1.714   0.287
   60SOL    HW2  193   1.142   1.732   0.152
   61SOL     OW  194   0.202   0.285   1.498
   61SOL    HW1  195   0.122   0.345   1.485
   61SOL    HW2  196   0.192   0.236   1.584
   62SOL     OW  197   1.632   1.377   0.081
   62SOL    HW1  198   1.600   1.471   0.071
   62SOL    HW2  199   1.556   1.314   0.069
   63SOL     OW  200   0.464   1.743   0.323
   63SOL    HW1  201   0.497   1.782   0.409
   63SOL    HW2  202   0.540   1.736   0.258
   64SOL     OW  203   1.400   0.107   0.426
   64SOL    HW1  204   1.376   0.070   0.336
   64SOL    HW2  205   1.499   0.123   0.430
   65SOL     OW  206   0.249   1.785   1.241
   65SOL    HW1  207   0.306   1.720   1.291
   65SOL    HW2  208   0.233   1.752   1.148
   66SOL     OW  209   0.940   1.698   0.904
   66SOL    HW1  210   1.020   1.641   0.925
   66SOL    HW2  211   0.891   1.658   0.827
   67SOL     OW  212   0.382   0.700   0.480
   67SOL    HW1  213   0.427   0.610   0.477
   67SOL    HW2  214   0.288   0.689   0.513
   68SOL     OW  215   1.547   0.222   1.729
   68SOL    HW1  216   1.542   0.259   1.821
   68SOL    HW2  217   1.475   0.153   1.717
   69SOL     OW  218   0.614   0.122   0.117
   69SOL    HW1  219   0.712   0.100   0.124
   69SOL    HW2  220   0.583   0.105   0.024
   70SOL     OW  221   0.781   0.264   1.749
   70SOL    HW1  222   0.848   0.203   1.792
   70SOL    HW2  223   0.708   0.283   1.814
   71SOL     OW  224   0.888   1.514   1.195
   71SOL    HW1  225   0.865   1.489   1.101
   71SOL    HW2  226   0.949   1.445   1.234
   72SOL     OW  227   1.351   0.590   1.433
   72SOL    HW1  228   1.379   0.547   1.518
   72SOL    HW2  229   1.376   0.686   1.434
   73SOL     OW  230   0.803   1.402   0.924
   73SOL    HW1  231   0.893   1.416   0.882
   73SOL    HW2  232   0.732   1.404   0.853
   74SOL     OW  233   0.922   0.503   0.899
   74SOL    HW1  234   0.897   0.494   0.803
   74SOL    HW2  235   0.970   0.421   0.930
   75SOL     OW  236   0.539   0.064   0.512
   75SOL    HW1  237   0.458   0.065   0.570
   75SOL    HW2  238   0.542   0.147   0.457
   76SOL     OW  239   1.434   1.188   0.041
   76SOL    HW1  240   1.466   1.112   0.098
   76SOL    HW2  241   1.342   1.215   0.071
   77SOL     OW  242   0.297   0.035   0.171
   77SOL    HW1  243   0.346   0.119   0.150
   77SOL    HW2  244   0.359  -0.030   0.216
   78SOL     OW  245   0.935   0.236   0.480
   78SOL    HW1  246   0.887   0.277   0.402
   78SOL    HW2  247   1.034   0.234   0.461
   79SOL     OW  248   1.076   0.683   1.464
   79SOL    HW1  249   0.996   0.622   1.467
   79SOL    HW2  250   1.157   0.630   1.440
   80SOL     OW  251   1.227   1.570   0.793
   80SOL    HW1  252   1.248   1.644   0.728
   80SOL    HW2  253   1.295   1.570   0.866
   81SOL     OW  254   0.459   1.152   0.741
   81SOL    HW1  255   0.388   1.125   0.806
   81SOL    HW2  256   0.433   1.124   0.648
   82SOL     OW  257   1.271   1.797   0.591
   82SOL    HW1  258   1.315   1.861   0.527
   82SOL    HW2  259   1.221   1.849   0.661
   83SOL     OW  260   1.032   0.549   0.016
   83SOL    HW1  261   0.991   0.631  -0.023
   83SOL    HW2  262   1.096   0.575   0.089
   84SOL     OW  263   0.078   0.556   1.386
   84SOL    HW1  264   0.170   0.555   1.345
   84SOL    HW2  265   0.072   0.630   1.453
   85SOL     OW  266   0.561   0.222   1.147
   85SOL    HW1  267   0.599   0.138   1.184
   85SOL    HW2  268   0.473   0.241   1.191
   86SOL     OW  269   0.866   0.454   0.642
   86SOL    HW1  270   0.834   0.526   0.580
   86SOL    HW2  271   0.890   0.373   0.589
   87SOL     OW  272   1.017   0.039   0.753
   87SOL    HW1  273   0.945   0.044   0.684
   87SOL    HW2  274   0.993  -0.030   0.822
   88SOL     OW  275   1.429   1.173   0.867
   88SOL    HW1  276   1.374   1.089   0.860
   88SOL    HW2  277   1.455   1.202   0.775
   89SOL     OW  278   1.466   0.590   0.992
   89SOL    HW1  279   1.436   0.495   0.999
   89SOL    HW2  280   1.539   0.606   1.058
   90SOL     OW  281   1.857   0.833   0.377
   90SOL    HW1  282   1.899   0.769   0.441
   90SOL    HW2  283   1.819   0.782   0.299
   91SOL     OW  284   0.488   1.385   0.174
   91SOL    HW1  285   0.401   1.370   0.221
   91SOL    HW2  286   0.471   1.411   0.079
   92SOL     OW  287   1.664   1.280   0.657
   92SOL    HW1  288   1.763   1.288   0.671
   92SOL    HW2  289   1.619   1.364   0.688
   93SOL     OW  290   1.390   0.575   0.078
   93SOL    HW1  291   1.336   0.554   0.159
   93SOL    HW2  292   1.481   0.534   0.087
   94SOL     OW  293   0.527   0.256   0.328
   94SOL    HW1  294   0.554   0.197   0.253
   94SOL    HW2  295   0.527   0.351   0.297
   95SOL     OW  296   1.754   1.223   1.588
   95SOL    HW1  297   1.845   1.184   1.575
   95SOL    HW2  298   1.762   1.319   1.612
   96SOL     OW  299   1.064   1.347   1.340
   96SOL    HW1  300   0.984   1.324   1.395
   96SOL    HW2  301   1.147   1.321   1.389
   97SOL     OW  302   1.592   1.629   1.625
   97SOL    HW1  303   1.619   1.663   1.535
   97SOL    HW2  304   1.671   1.591   1.671
   98SOL     OW  305   1.111   1.195   1.100
   98SOL    HW1  306   1.071   1.239   1.181
   98SOL    HW2  307   1.070   1.232   1.017
   99SOL     OW  308   1.638   1.099   1.079
   99SOL    HW1  309   1.643   1.180   1.138
   99SOL    HW2  310   1.552   1.101   1.028
  100SOL     OW  311   0.915   0.089   1.402
  100SOL    HW1  312   0.940   0.069   1.307
  100SOL    HW2  313   0.987   0.145   1.444
  101SOL     OW  314   0.980   1.116   1.719
  101SOL    HW1  315   0.881   1.122   1.729
  101SOL    HW2  316   1.003   1.036   1.663
  102SOL     OW  317   0.705   1.050   0.368
  102SOL    HW1  318   0.691   1.057   0.467
  102SOL    HW2  319   0.789   0.999   0.350
  103SOL     OW  320   0.410   0.813   1.251
  103SOL    HW1  321   0.496   0.825   1.301
  103SOL    HW2  322   0.368   0.726   1.278
  104SOL     OW  323   1.274   0.386   1.262
  104SOL    HW1  324   1.295   0.460   1.326
  104SOL    HW2  325   1.185   0.403   1.219
  105SOL     OW  326   0.064   1.564   1.331
  105SOL    HW1  327   0.018   1.646   1.297
  105SOL    HW2  328   0.162   1.583   1.340
  106SOL     OW  329   0.367   1.100   0.501
  106SOL    HW1  330   0.360   1.183   0.445
  106SOL    HW2  331   0.371   1.020   0.441
  107SOL     OW  332   0.566   0.537   0.865
  107SOL    HW1  333   0.578   0.603   0.791
  107SOL    HW2  334   0.612   0.571   0.948
  108SOL     OW  335   1.252   1.348   0.388
  108SOL    HW1  336   1.302   1.425   0.428
  108SOL    HW2  337   1.157   1.350   0.420
  109SOL     OW  338   1.272   1.445   1.142
  109SOL    HW1  339   1.319   1.458   1.229
  109SOL    HW2  340   1.206   1.371   1.151
  110SOL     OW  341   1.582   0.639   0.472
  110SOL    HW1  342   1.551   0.700   0.545
  110SOL    HW2  343   1.632   0.691   0.403
  111SOL     OW  344   0.354   1.510   1.329
  111SOL    HW1  345   0.333   1.466   1.242
  111SOL    HW2  346   0.451   1.536   1.332
  112SOL     OW  347   0.402   0.751   1.598
  112SOL    HW1  348   0.470   0.806   1.551
  112SOL    HW2  349   0.442   0.663   1.625
  113SOL     OW  350   1.587   0.779   1.670
  113SOL    HW1  351   1.495   0.817   1.665
  113SOL    HW2  352   1.647   0.826   1.605
  114SOL     OW  353   1.013   0.105   1.770
  114SOL    HW1  354   1.019   0.190   1.718
  114SOL    HW2  355   1.045   0.029   1.713
  115SOL     OW  356   0.504   0.050   1.740
  115SOL    HW1  357   0.462  -0.007   1.670
  115SOL    HW2  358   0.438   0.119   1.772
  116SOL     OW  359   0.573   0.870   1.029
  116SOL    HW1  360   0.617   0.959   1.020
  116SOL    HW2  361   0.510   0.870   1.106
  117SOL     OW  362   1.360   0.862   1.045
  117SOL    HW1  363   1.285   0.862   0.979
  117SOL    HW2  364   1.397   0.770   1.054
  118SOL     OW  365   1.209   0.525   0.275
  118SOL    HW1  366   1.222   0.441   0.329
  118SOL    HW2  367   1.180   0.599   0.335
  119SOL     OW  368   0.307   0.213   1.231
  119SOL    HW1  369   0.284   0.250   1.321
  119SOL    HW2  370   0.277   0.118   1.225
  120SOL     OW  371   0.037   1.310   1.282
  120SOL    HW1  372   0.090   1.261   1.350
  120SOL    HW2  373   0.059   1.408   1.287
  121SOL     OW  374   0.732   0.634   1.064
  121SOL    HW1  375   0.791   0.608   0.988
  121SOL    HW2  376   0.704   0.730   1.053
  122SOL     OW  377   1.728   0.935   1.854
  122SOL    HW1  378   1.682   0.928   1.765
  122SOL    HW2  379   1.666   0.979   1.920
  123SOL     OW  380   0.307   0.063   0.618
  123SOL    HW1  381   0.296   0.157   0.651
  123SOL    HW2  382   0.302   0.000   0.695
  124SOL     OW  383   1.622   0.367   0.374
  124SOL    HW1  384   1.624   0.291   0.438
  124SOL    HW2  385   1.574   0.444   0.414
  125SOL     OW  386   1.023   0.766   0.966
  125SOL    HW1  387   1.038   0.787   1.062
  125SOL    HW2  388   0.993   0.671   0.957
  126SOL     OW  389   0.980   1.573   1.700
  126SOL    HW1  390   0.960   1.617   1.612
  126SOL    HW2  391   1.019   1.482   1.684
  127SOL     OW  392   1.859   1.518   1.605
  127SOL    HW1  393   1.873   1.545   1.510
  127SOL    HW2  394   1.942   1.540   1.658
  128SOL     OW  395   0.350   0.898   1.804
  128SOL    HW1  396   0.426   0.942   1.852
  128SOL    HW2  397   0.385   0.851   1.722
  129SOL     OW  398   1.540   0.274   0.125
  129SOL    HW1  399   1.479   0.199   0.148
  129SOL    HW2  400   1.562   0.326   0.208
  130SOL     OW  401   1.303   0.838   0.042
  130SOL    HW1  402   1.337   0.745   0.057
  130SOL    HW2  403   1.321   0.865  -0.053
  131SOL     OW  404   1.068   1.333   0.849
  131SOL    HW1  405   1.075   1.249   0.794
  131SOL    HW2  406   1.130   1.402   0.813
  132SOL     OW  407   0.319   0.810   0.949
  132SOL    HW1  408   0.412   0.846   0.954
  132SOL    HW2  409   0.313   0.725   1.001
  133SOL     OW  410   0.339   0.509   1.006
  133SOL    HW1  411   0.287   0.426   0.989
  133SOL    HW2  412   0.416   0.514   0.942
  134SOL     OW  413   1.138   0.380   1.678
  134SOL    HW1  414   1.093   0.443   1.742
  134SOL    HW2  415   1.231   0.411   1.661
  135SOL     OW  416   1.160   0.207   1.477
  135SOL    HW1  417   1.160   0.271   1.554
  135SOL    HW2  418   1.188   0.255   1.394
  136SOL     OW  419   0.008   1.326   0.200
  136SOL    HW1  420  -0.085   1.347   0.169
  136SOL    HW2  421   0.018   1.227   0.213
  137SOL     OW  422   0.088   1.801   0.927
  137SOL    HW1  423   0.046   1.715   0.900
  137SOL    HW2  424   0.182   1.804   0.893
  138SOL     OW  425   0.504   1.568   0.910
  138SOL    HW1  426   0.570   1.642   0.919
  138SOL    HW2  427   0.548   1.489   0.868
  139SOL     OW  428   1.002   0.796   1.238
  139SOL    HW1  429   1.043   0.764   1.324
  139SOL    HW2  430   0.906   0.769   1.235
  140SOL     OW  431   0.040   0.544   1.114
  140SOL    HW1  432   0.125   0.511   1.073
  140SOL    HW2  433   0.053   0.559   1.212
  141SOL     OW  434   0.189   0.520   1.722
  141SOL    HW1  435   0.248   0.480   1.652
  141SOL    HW2  436   0.131   0.591   1.681
  142SOL     OW  437   1.369   0.950   1.660
  142SOL    HW1  438   1.408   1.039   1.680
  142SOL    HW2  439   1.379   0.930   1.563
  143SOL     OW  440   0.815   0.572   0.325
  143SOL    HW1  441   0.822   0.483   0.279
  143SOL    HW2  442   0.721   0.606   0.317
  144SOL     OW  443   1.657   0.604   1.206
  144SOL    HW1  444   1.619   0.535   1.268
  144SOL    HW2  445   1.739   0.568   1.162
  145SOL     OW  446   0.252   1.564   1.744
  145SOL    HW1  447   0.222   1.621   1.820
  145SOL    HW2  448   0.245   1.467   1.770
  146SOL     OW  449   0.671   0.464   1.269
  146SOL    HW1  450   0.637   0.375   1.239
  146SOL    HW2  451   0.697   0.518   1.189
  147SOL     OW  452   0.930   1.678   1.465
  147SOL    HW1  453   0.906   1.660   1.370
  147SOL    HW2  454   0.960   1.772   1.475
  148SOL     OW  455   0.473   0.500   0.191
  148SOL    HW1  456   0.534   0.580   0.195
  148SOL    HW2  457   0.378   0.531   0.198
  149SOL     OW  458   0.159   1.137   1.466
  149SOL    HW1  459   0.181   1.076   1.542
  149SOL    HW2  460   0.169   1.088   1.380
  150SOL     OW  461   1.347   1.059   1.234
  150SOL    HW1  462   1.371   0.996   1.160
  150SOL    HW2  463   1.257   1.099   1.216
  151SOL     OW  464   1.302   0.855   0.309
  151SOL    HW1  465   1.216   0.824   0.351
  151SOL    HW2  466   1.298   0.841   0.210
  152SOL     OW  467   1.759   1.747   1.154
  152SOL    HW1  468   1.820   1.777   1.081
  152SOL    HW2  469   1.721   1.658   1.132
  153SOL     OW  470   1.252   1.731   1.128
  153SOL    HW1  471   1.336   1.736   1.074
  153SOL    HW2  472   1.229   1.635   1.146
  154SOL     OW  473   0.083   1.258   1.022
  154SOL    HW1  474   0.078   1.257   1.122
  154SOL    HW2  475   0.000   1.217   0.984
  155SOL     OW  476   0.688   1.662   1.716
  155SOL    HW1  477   0.632   1.743   1.725
  155SOL    HW2  478   0.740   1.666   1.630
  156SOL     OW  479   0.903   0.086   0.133
  156SOL    HW1  480   0.954   0.087   0.047
  156SOL    HW2  481   0.959   0.044   0.204
  157SOL     OW  482   1.726   0.135   0.523
  157SOL    HW1  483   1.799   0.118   0.456
  157SOL    HW2  484   1.695   0.048   0.561
  158SOL     OW  485   1.388   1.573   0.477
  158SOL    HW1  486   1.455   1.585   0.403
  158SOL    HW2  487   1.348   1.662   0.500
  159SOL     OW  488   0.130   1.794   1.851
  159SOL    HW1  489   0.089   1.720   1.904
  159SOL    HW2  490   0.194   1.845   1.909
  160SOL     OW  491   1.280   0.927   0.672
  160SOL    HW1  492   1.340   0.846   0.674
  160SOL    HW2  493   1.320   0.996   0.612
  161SOL     OW  494   0.830   1.273   1.422
  161SOL    HW1  495   0.825   1.306   1.517
  161SOL    HW2  496   0.744   1.292   1.376
  162SOL     OW  497   0.672   1.616   0.154
  162SOL    HW1  498   0.681   1.626   0.055
  162SOL    HW2  499   0.632   1.527   0.175
  163SOL     OW  500   1.650   1.720   1.394
  163SOL    HW1  501   1.703   1.730   1.310
  163SOL    HW2  502   1.623   1.810   1.428
  164SOL     OW  503   1.841   0.175   0.963
  164SOL    HW1  504   1.880   0.090   0.927
  164SOL    HW2  505   1.743   0.177   0.944
  165SOL     OW  506   0.263   0.326   0.720
  165SOL    HW1  507   0.184   0.377   0.686
  165SOL    HW2  508   0.254   0.311   0.818
  166SOL     OW  509   1.194   1.612   0.031
  166SOL    HW1  510   1.200   1.519   0.068
  166SOL    HW2  511   1.135   1.612  -0.049
  167SOL     OW  512   0.822   1.002   1.372
  167SOL    HW1  513   0.862   1.001   1.280
  167SOL    HW2  514   0.832   1.094   1.412
  168SOL     OW  515   0.916   0.910   0.291
  168SOL    HW1  516   0.979   0.948   0.223
  168SOL    HW2  517   0.956   0.827   0.330
  169SOL     OW  518   1.504   1.607   0.044
  169SOL    HW1  519   1.412   1.644   0.051
  169SOL    HW2  520   1.542   1.627  -0.046
  170SOL     OW  521   0.372   1.288   1.490
  170SOL    HW1  522   0.359   1.381   1.456
  170SOL    HW2  523   0.288   1.236   1.477
  171SOL     OW  524   1.614   1.292   1.289
  171SOL    HW1  525   1.674   1.295   1.369
  171SOL    HW2  526   1.539   1.356   1.302
  172SOL     OW  527   1.039   1.098   0.696
  172SOL    HW1  528   0.969   1.051   0.750
  172SOL    HW2  529   1.098   1.030   0.653
  173SOL     OW  530   1.014   0.236   0.971
  173SOL    HW1  531   1.006   0.200   0.878
  173SOL    HW2  532   1.012   0.160   1.036
  174SOL     OW  533   0.590   1.487   0.491
  174SOL    HW1  534   0.632   1.429   0.421
  174SOL    HW2  535   0.546   1.566   0.447
  175SOL     OW  536   1.709   0.385   1.381
  175SOL    HW1  537   1.782   0.454   1.385
  175SOL    HW2  538   1.737   0.310   1.322
  176SOL     OW  539   0.255   1.348   0.290
  176SOL    HW1  540   0.159   1.349   0.263
  176SOL    HW2  541   0.267   1.401   0.374
  177SOL     OW  542   0.105   1.013   1.726
  177SOL    HW1  543   0.028   0.980   1.780
  177SOL    HW2  544   0.190   0.983   1.768
  178SOL     OW  545   0.672   0.203   1.489
  178SOL    HW1  546   0.762   0.187   1.449
  178SOL    HW2  547   0.680   0.208   1.588
  179SOL     OW  548   0.075   0.345   0.033
  179SOL    HW1  549  -0.017   0.317   0.004
  179SOL    HW2  550   0.106   0.422  -0.023
  180SOL     OW  551   1.440   0.856   1.398
  180SOL    HW1  552   1.383   0.908   1.335
  180SOL    HW2  553   1.536   0.868   1.374
  181SOL     OW  554   0.072   0.166   0.318
  181SOL    HW1  555   0.055   0.249   0.264
  181SOL    HW2  556   0.162   0.129   0.296
  182SOL     OW  557   1.183   1.335   0.119
  182SOL    HW1  558   1.084   1.324   0.121
  182SOL    HW2  559   1.217   1.350   0.212
  183SOL     OW  560   0.613   0.842   1.431
  183SOL    HW1  561   0.669   0.923   1.414
  183SOL    HW2  562   0.672   0.762   1.434
  184SOL     OW  563   1.493   1.767   0.959
  184SOL    HW1  564   1.526   1.831   0.890
  184SOL    HW2  565   1.559   1.761   1.034
  185SOL     OW  566   0.716   0.565   1.708
  185SOL    HW1  567   0.735   0.630   1.782
  185SOL    HW2  568   0.776   0.485   1.717
  186SOL     OW  569   1.450   1.220   1.633
  186SOL    HW1  570   1.441   1.210   1.732
  186SOL    HW2  571   1.546   1.213   1.607
  187SOL     OW  572   0.390   1.741   1.560
  187SOL    HW1  573   0.299   1.782   1.558
  187SOL    HW2  574   0.383   1.647   1.592
  188SOL     OW  575   1.674   0.883   1.254
  188SOL    HW1  576   1.647   0.794   1.217
  188SOL    HW2  577   1.675   0.951   1.181
  189SOL     OW  578   1.225   0.325   0.449
  189SOL    HW1  579   1.290   0.251   0.438
  189SOL    HW2  580   1.245   0.375   0.533
  190SOL     OW  581   0.594   0.745   0.652
  190SOL    HW1  582   0.644   0.830   0.633
  190SOL    HW2  583   0.506   0.747   0.604
  191SOL     OW  584   1.777   0.342   1.642
  191SOL    HW1  585   1.760   0.373   1.548
  191SOL    HW2  586   1.693   0.305   1.680
  192SOL     OW  587   1.730   0.934   1.517
  192SOL    HW1  588   1.768   1.025   1.532
  192SOL    HW2  589   1.722   0.917   1.418
  193SOL     OW  590   0.859   1.374   0.016
  193SOL    HW1  591   0.813   1.389   0.104
  193SOL    HW2  592   0.903   1.459  -0.014
  194SOL     OW  593   0.661   1.790   0.953
  194SOL    HW1  594   0.615   1.878   0.940
  194SOL    HW2  595   0.760   1.802   0.946
  195SOL     OW  596   0.859   0.956   0.861
  195SOL    HW1  597   0.913   0.887   0.909
  195SOL    HW2  598   0.827   1.025   0.927
  196SOL     OW  599   1.083   0.984   0.087
  196SOL    HW1  600   1.060   1.037   0.005
  196SOL    HW2  601   1.164   0.928   0.068
  197SOL     OW  602   1.861   1.569   0.851
  197SOL    HW1  603   1.790   1.557   0.781
  197SOL    HW2  604   1.862   1.490   0.911
  198SOL     OW  605   0.221   1.314   1.844
  198SOL    HW1  606   0.156   1.241   1.823
  198SOL    HW2  607   0.225   1.328   1.942
  199SOL     OW  608   0.079   1.240   0.653
  199SOL    HW1  609   0.078   1.193   0.741
  199SOL    HW2  610   0.161   1.212   0.602
  200SOL     OW  611   0.672   1.391   1.624
  200SOL    HW1  612   0.594   1.341   1.662
  200SOL    HW2  613   0.669   1.486   1.655
  201SOL     OW  614   1.824   0.192   1.227
  201SOL    HW1  615   1.820   0.102   1.271
  201SOL    HW2  616   1.827   0.181   1.128
  202SOL     OW  617   0.428   0.424   0.520
  202SOL    HW1  618   0.458   0.352   0.458
  202SOL    HW2  619   0.389   0.384   0.603
  203SOL     OW  620   1.705   1.487   1.104
  203SOL    HW1  621   1.612   1.462   1.077
  203SOL    HW2  622   1.731   1.437   1.186
  204SOL     OW  623   0.317   0.547   1.280
  204SOL    HW1  624   0.355   0.488   1.352
  204SOL    HW2  625   0.357   0.521   1.192
  205SOL     OW  626   0.812   1.586   0.687
  205SOL    HW1  627   0.844   1.596   0.593
  205SOL    HW2  628   0.733   1.524   0.689
  206SOL     OW  629   1.424   0.214   1.112
  206SOL    HW1  630   1.476   0.149   1.167
  206SOL    HW2  631   1.375   0.277   1.173
  207SOL     OW  632   1.001   0.034   1.154
  207SOL    HW1  633   0.938  -0.038   1.123
  207SOL    HW2  634   1.094  -0.002   1.154
  208SOL     OW  635   0.770   1.330   0.301
  208SOL    HW1  636   0.724   1.243   0.318
  208SOL    HW2  637   0.861   1.327   0.342
  209SOL     OW  638   0.618   1.567   1.284
  209SOL    HW1  639   0.613   1.649   1.341
  209SOL    HW2  640   0.707   1.564   1.239
  210SOL     OW  641   1.352   0.052   0.168
  210SOL    HW1  642   1.387   0.011   0.084
  210SOL    HW2  643   1.262   0.014   0.188
  211SOL     OW  644   1.300   0.453   0.691
  211SOL    HW1  645   1.241   0.533   0.695
  211SOL    HW2  646   1.315   0.418   0.784
  212SOL     OW  647   1.593   0.221   0.882
  212SOL    HW1  648   1.509   0.220   0.936
  212SOL    HW2  649   1.595   0.304   0.826
  213SOL     OW  650   0.039   1.077   0.300
  213SOL    HW1  651   0.138   1.066   0.291
  213SOL    HW2  652  -0.001   0.991   0.332
  214SOL     OW  653   0.875   1.646   0.337
  214SOL    HW1  654   0.798   1.611   0.283
  214SOL    HW2  655   0.843   1.717   0.399
  215SOL     OW  656   0.230   0.628   1.975
  215SOL    HW1  657   0.137   0.626   2.012
  215SOL    HW2  658   0.231   0.589   1.883
  216SOL     OW  659   0.225   0.275   2.858
  216SOL    HW1  660   0.260   0.258   2.950
  216SOL    HW2  661   0.137   0.230   2.846
  217SOL     OW  662   0.019   0.368   2.509
  217SOL    HW1  663  -0.063   0.411   2.548
  217SOL    HW2  664  -0.009   0.295   2.446
  218SOL     OW  665   0.569   1.275   3.027
  218SOL    HW1  666   0.476   1.268   2.990
  218SOL    HW2  667   0.580   1.364   3.071
  219SOL     OW  668   1.555   1.511   2.565
  219SOL    HW1  669   1.498   1.495   2.646
  219SOL    HW2  670   1.496   1.521   2.485
  220SOL     OW  671   1.135   0.703   2.579
  220SOL    HW1  672   1.192   0.781   2.554
  220SOL    HW2  673   1.075   0.729   2.655
  221SOL     OW  674   1.755   0.607   2.093
  221SOL    HW1  675   1.743   0.594   1.994
  221SOL    HW2  676   1.725   0.526   2.142
  222SOL     OW  677   0.768   1.144   2.885
  222SOL    HW1  678   0.690   1.161   2.945
  222SOL    HW2  679   0.802   1.231   2.849
  223SOL     OW  680   0.850   0.798   3.685
  223SOL    HW1  681   0.846   0.874   3.750
  223SOL    HW2  682   0.872   0.834   3.594
  224SOL     OW  683   0.685   1.012   2.527
  224SOL    HW1  684   0.754   0.996   2.597
  224SOL    HW2  685   0.612   1.069   2.565
  225SOL     OW  686   0.686   1.161   3.665
  225SOL    HW1  687   0.746   1.240   3.679
  225SOL    HW2  688   0.600   1.192   3.624
  226SOL     OW  689   0.335   1.435   2.923
  226SOL    HW1  690   0.257   1.404   2.870
  226SOL    HW2  691   0.393   1.493   2.866
  227SOL     OW  692   1.460   1.505   3.201
  227SOL    HW1  693   1.484   1.599   3.227
  227SOL    HW2  694   1.444   1.451   3.283
  228SOL     OW  695   0.438   0.392   3.361
  228SOL    HW1  696   0.520   0.336   3.370
  228SOL    HW2  697   0.357   0.334   3.365
  229SOL     OW  698   1.603   0.447   2.599
  229SOL    HW1  699   1.529   0.493   2.549
  229SOL    HW2  700   1.654   0.515   2.652
  230SOL     OW  701   0.231   1.713   2.345
  230SOL    HW1  702   0.265   1.790   2.399
  230SOL    HW2  703   0.275   1.713   2.255
  231SOL     OW  704   1.127   1.341   3.552
  231SOL    HW1  705   1.174   1.341   3.640
  231SOL    HW2  706   1.079   1.254   3.541
  232SOL     OW  707   0.230   1.434   2.400
  232SOL    HW1  708   0.204   1.530   2.400
  232SOL    HW2  709   0.159   1.380   2.445
  233SOL     OW  710   0.240   1.091   2.748
  233SOL    HW1  711   0.254   1.007   2.800
  233SOL    HW2  712   0.185   1.155   2.803
  234SOL     OW  713   0.620   1.786   3.301
  234SOL    HW1  714   0.528   1.769   3.336
  234SOL    HW2  715   0.648   1.878   3.327
  235SOL     OW  716   0.606   0.964   1.985
  235SOL    HW1  717   0.613   1.048   1.931
  235SOL    HW2  718   0.652   0.977   2.073
  236SOL     OW  719   1.594   0.114   3.342
  236SOL    HW1  720   1.576   0.181   3.270
  236SOL    HW2  721   1.591   0.160   3.431
  237SOL     OW  722   0.122   0.643   2.425
  237SOL    HW1  723   0.077   0.555   2.442
  237SOL    HW2  724   0.121   0.697   2.509
  238SOL     OW  725   1.842   1.767   2.221
  238SOL    HW1  726   1.896   1.738   2.301
  238SOL    HW2  727   1.872   1.857   2.192
  239SOL     OW  728   0.027   1.596   1.979
  239SOL    HW1  729   0.008   1.500   2.000
  239SOL    HW2  730  -0.006   1.654   2.054
  240SOL     OW  731   1.689   0.922   2.474
  240SOL    HW1  732   1.784   0.893   2.482
  240SOL    HW2  733   1.681   0.987   2.399
  241SOL     OW  734   1.641   1.108   2.294
  241SOL    HW1  735   1.727   1.110   2.242
  241SOL    HW2  736   1.655   1.155   2.382
  242SOL     OW  737   0.113   0.737   3.459
  242SOL    HW1  738   0.201   0.724   3.504
  242SOL    HW2  739   0.100   0.834   3.437
  243SOL     OW  740   0.613   1.365   2.588
  243SOL    HW1  741   0.564   1.278   2.597
  243SOL    HW2  742   0.590   1.408   2.501
  244SOL     OW  743   1.293   1.228   3.285
  244SOL    HW1  744   1.330   1.155   3.227
  244SOL    HW2  745   1.345   1.233   3.370
  245SOL     OW  746   0.809   0.004   2.364
  245SOL    HW1  747   0.849   0.095   2.355
  245SOL    HW2  748   0.709   0.012   2.370
  246SOL     OW  749   0.197   0.976   3.126
  246SOL    HW1  750   0.286   0.931   3.112
  246SOL    HW2  751   0.124   0.911   3.107
  247SOL     OW  752   1.525   0.999   2.052
  247SOL    HW1  753   1.462   0.923   2.065
  247SOL    HW2  754   1.573   1.017   2.138
  248SOL     OW  755   1.187   1.792   3.478
  248SOL    HW1  756   1.211   1.852   3.402
  248SOL    HW2  757   1.194   1.697   3.448
  249SOL     OW  758   0.317   0.251   3.663
  249SOL    HW1  759   0.388   0.322   3.669
  249SOL    HW2  760   0.229   0.290   3.691
  250SOL     OW  761   1.466   1.417   2.815
  250SOL    HW1  762   1.407   1.423   2.895
  250SOL    HW2  763   1.451   1.329   2.769
  251SOL     OW  764   1.667   1.714   2.434
  251SOL    HW1  765   1.626   1.691   2.346
  251SOL    HW2  766   1.649   1.640   2.499
  252SOL     OW  767   0.598   0.729   2.132
  252SOL    HW1  768   0.622   0.798   2.064
  252SOL    HW2  769   0.520   0.762   2.186
  253SOL     OW  770   1.281   0.345   2.806
  253SOL    HW1  771   1.195   0.295   2.793
  253SOL    HW2  772   1.343   0.291   2.862
  254SOL     OW  773   1.576   1.662   2.169
  254SOL    HW1  774   1.665   1.708   2.172
  254SOL    HW2  775   1.555   1.638   2.074
  255SOL     OW  776   0.807   0.605   3.327
  255SOL    HW1  777   0.760   0.602   3.416
  255SOL    HW2  778   0.756   0.550   3.261
  256SOL     OW  779   1.394   0.469   3.536
  256SOL    HW1  780   1.374   0.512   3.624
  256SOL    HW2  781   1.472   0.407   3.545
  257SOL     OW  782   0.973   0.890   3.434
  257SOL    HW1  783   1.019   0.806   3.405
  257SOL    HW2  784   0.917   0.924   3.359
  258SOL     OW  785   0.991   0.410   3.104
  258SOL    HW1  786   0.914   0.444   3.158
  258SOL    HW2  787   0.957   0.359   3.025
  259SOL     OW  788   1.041   0.701   2.291
  259SOL    HW1  789   1.067   0.697   2.387
  259SOL    HW2  790   0.956   0.650   2.277
  260SOL     OW  791   0.076   0.811   2.651
  260SOL    HW1  792   0.175   0.799   2.660
  260SOL    HW2  793   0.052   0.906   2.672
  261SOL     OW  794   0.130   1.821   3.433
  261SOL    HW1  795   0.120   1.806   3.532
  261SOL    HW2  796   0.044   1.857   3.397
  262SOL     OW  797   0.865   0.348   2.057
  262SOL    HW1  798   0.924   0.411   2.008
  262SOL    HW2  799   0.884   0.254   2.028
  263SOL     OW  800   1.719   0.585   3.693
  263SOL    HW1  801   1.693   0.674   3.657
  263SOL    HW2  802   1.717   0.517   3.620
  264SOL     OW  803   1.362   1.144   2.407
  264SOL    HW1  804   1.445   1.115   2.359
  264SOL    HW2  805   1.313   1.211   2.351
  265SOL     OW  806   0.550   0.196   2.747
  265SOL    HW1  807   0.545   0.191   2.847
  265SOL    HW2  808   0.552   0.292   2.718
  266SOL     OW  809   1.008   1.456   2.339
  266SOL    HW1  810   0.962   1.528   2.287
  266SOL    HW2  811   1.004   1.476   2.437
  267SOL     OW  812   0.351   1.801   2.715
  267SOL    HW1  813   0.401   1.715   2.721
  267SOL    HW2  814   0.416   1.878   2.712
  268SOL     OW  815   1.795   1.066   2.735
  268SOL    HW1  816   1.733   1.051   2.659
  268SOL    HW2  817   1.743   1.077   2.820
  269SOL     OW  818   1.227   1.550   3.368
  269SOL    HW1  819   1.233   1.473   3.432
  269SOL    HW2  820   1.175   1.524   3.288
  270SOL     OW  821   0.321   0.943   2.104
  270SOL    HW1  822   0.403   0.982   2.062
  270SOL    HW2  823   0.294   0.861   2.055
  271SOL     OW  824   1.458   0.735   2.590
  271SOL    HW1  825   1.453   0.670   2.665
  271SOL    HW2  826   1.538   0.794   2.603
  272SOL     OW  827   0.461   1.266   3.589
  272SOL    HW1  828   0.411   1.267   3.503
  272SOL    HW2  829   0.398   1.248   3.665
  273SOL     OW  830   1.111   1.776   2.099
  273SOL    HW1  831   1.051   1.714   2.149
  273SOL    HW2  832   1.142   1.732   2.014
  274SOL     OW  833   0.202   0.285   3.360
  274SOL    HW1  834   0.122   0.345   3.347
  274SOL    HW2  835   0.192   0.236   3.446
  275SOL     OW  836   1.632   1.377   1.943
  275SOL    HW1  837   1.600   1.471   1.933
  275SOL    HW2  838   1.556   1.314   1.931
  276SOL     OW  839   0.464   1.743   2.185
  276SOL    HW1  840   0.497   1.782   2.271
  276SOL    HW2  841   0.540   1.736   2.120
  277SOL     OW  842   1.400   0.107   2.288
  277SOL    HW1  843   1.376   0.070   2.198
  277SOL    HW2  844   1.499   0.123   2.292
  278SOL     OW  845   0.249   1.785   3.103
  278SOL    HW1  846   0.306   1.720   3.153
  278SOL    HW2  847   0.233   1.752   3.010
  279SOL     OW  848   0.940   1.698   2.766
  279SOL    HW1  849   1.020   1.641   2.787
  279SOL    HW2  850   0.891   1.658   2.689
  280SOL     OW  851   0.382   0.700   2.342
  280SOL    HW1  852   0.427   0.610   2.339
  280SOL    HW2  853   0.288   0.689   2.375
  281SOL     OW  854   1.547   0.222   3.591
  281SOL    HW1  855   1.542   0.259   3.683
  281SOL    HW2  856   1.475   0.153   3.579
  282SOL     OW  857   0.614   0.122   1.979
  282SOL    HW1  858   0.712   0.100   1.986
  282SOL    HW2  859   0.583   0.105   1.886
  283SOL     OW  860   0.781   0.264   3.611
  283SOL    HW1  861   0.848   0.203   3.654
  283SOL    HW2  862   0.708   0.283   3.676
  284SOL     OW  863   0.888   1.514   3.057
  284SOL    HW1  864   0.865   1.489   2.963
  284SOL    HW2  865   0.949   1.445   3.096
  285SOL     OW  866   1.351   0.590   3.295
  285SOL    HW1  867   1.379   0.547   3.380
  285SOL    HW2  868   1.376   0.686   3.296
  286SOL     OW  869   0.803   1.402   2.786
  286SOL    HW1  870   0.893   1.416   2.744
  286SOL    HW2  871   0.732   1.404   2.715
  287SOL     OW  872   0.922   0.503   2.761
  287SOL    HW1  873   0.897   0.494   2.665
  287SOL    HW2  874   0.970   0.421   2.792
  288SOL     OW  875   0.539   0.064   2.374
  288SOL    HW1  876   0.458   0.065   2.432
  288SOL    HW2  877   0.542   0.147   2.319
  289SOL     OW  878   1.434   1.188   1.903
  289SOL    HW1  879   1.466   1.112   1.960
  289SOL    HW2  880   1.342   1.215   1.933
  290SOL     OW  881   0.297   0.035   2.033
  290SOL    HW1  882   0.346   0.119   2.012
  290SOL    HW2  883   0.359  -0.030   2.078
  291SOL     OW  884   0.935   0.236   2.342
  291SOL    HW1  885   0.887   0.277   2.264
  291SOL    HW2  886   1.034   0.234   2.323
  292SOL     OW  887   1.076   0.683   3.326
  292SOL    HW1  888   0.996   0.622   3.329
  292SOL    HW2  889   1.157   0.630   3.302
  293SOL     OW  890   1.227   1.570   2.655
  293SOL    HW1  891   1.248   1.644   2.590
  293SOL    HW2  892   1.295   1.570   2.728
  294SOL     OW  893   0.459   1.152   2.603
  294SOL    HW1  894   0.388   1.125   2.668
  294SOL    HW2  895   0.433   1.124   2.510
  295SOL     OW  896   1.271   1.797   2.453
  295SOL    HW1  897   1.315   1.861   2.389
  295SOL    HW2  898   1.221   1.849   2.523
  296SOL     OW  899   1.032   0.549   1.878
  296SOL    HW1  900   0.991   0.631   1.839
  296SOL    HW2  901   1.096   0.575   1.951
  297SOL     OW  902   0.078   0.556   3.248
  297SOL    HW1  903   0.170   0.555   3.207
  297SOL    HW2  904   0.072   0.630   3.315
  298SOL     OW  905   0.561   0.222   3.009
  298SOL    HW1  906   0.599   0.138   3.046
  298SOL    HW2  907   0.473   0.241   3.053
  299SOL     OW  908   0.866   0.454   2.504
  299SOL    HW1  909   0.834   0.526   2.442
  299SOL    HW2  910   0.890   0.373   2.451
  300SOL     OW  911   1.017   0.039   2.615
  300SOL    HW1  912   0.945   0.044   2.546
  300SOL    HW2  913   0.993  -0.030   2.684
  301SOL     OW  914   1.429   1.173   2.729
  301SOL    HW1  915   1.374   1.089   2.722
  301SOL    HW2  916   1.455   1.202   2.637
  302SOL     OW  917   1.466   0.590   2.854
  302SOL    HW1  918   1.436   0.495   2.861
  302SOL    HW2  919   1.539   0.606   2.920
  303SOL     OW  920   1.857   0.833   2.239
  303SOL    HW1  921   1.899   0.769   2.303
  303SOL    HW2  922   1.819   0.782   2.161
  304SOL     OW  923   0.488   1.385   2.036
  304SOL    HW1  924   0.401   1.370   2.083
  304SOL    HW2  925   0.471   1.411   1.941
  305SOL     OW  926   1.664   1.280   2.519
  305SOL    HW1  927   1.763   1.288   2.533
  305SOL    HW2  928   1.619   1.364   2.550
  306SOL     OW  929   1.390   0.575   1.940
  306SOL    HW1  930   1.336   0.554   2.021
  306SOL    HW2  931   1.481   0.534   1.949
  307SOL     OW  932   0.527   0.256   2.190
  307SOL    HW1  933   0.554   0.197   2.115
  307SOL    HW2  934   0.527   0.351   2.159
  308SOL     OW  935   1.754   1.223   3.450
  308SOL    HW1  936   1.845   1.184   3.437
  308SOL    HW2  937   1.762   1.319   3.474
  309SOL     OW  938   1.064   1.347   3.202
  309SOL    HW1  939   0.984   1.324   3.257
  309SOL    HW2  940   1.147   1.321   3.251
  310SOL     OW  941   1.592   1.629   3.487
  310SOL    HW1  942   1.619   1.663   3.397
  310SOL    HW2  943   1.671   1.591   3.533
  311SOL     OW  944   1.111   1.195   2.962
  311SOL    HW1  945   1.071   1.239   3.043
  311SOL    HW2  946   1.070   1.232   2.879
  312SOL     OW  947   1.638   1.099   2.941
  312SOL    HW1  948   1.643   1.180   3.000
  312SOL    HW2  949   1.552   1.101   2.890
  313SOL     OW  950   0.915   0.089   3.264
  313SOL    HW1  951   0.940   0.069   3.169
  313SOL    HW2  952   0.987   0.145   3.306
  314SOL     OW  953   0.980   1.116   3.581
  314SOL    HW1  954   0.881   1.122   3.591
  314SOL    HW2  955   1.003   1.036   3.525
  315SOL     OW  956   0.705   1.050   2.230
  315SOL    HW1  957   0.691   1.057   2.329
  315SOL    HW2  958   0.789   0.999   2.212
  316SOL     OW  959   0.410   0.813   3.113
  316SOL    HW1  960   0.496   0.825   3.163
  316SOL    HW2  961   0.368   0.726   3.140
  317SOL     OW  962   1.274   0.386   3.124
  317SOL    HW1  963   1.295   0.460   3.188
  317SOL    HW2  964   1.185   0.403   3.081
  318SOL     OW  965   0.064   1.564   3.193
  318SOL    HW1  966   0.018   1.646   3.159
  318SOL    HW2  967   0.162   1.583   3.202
  319SOL     OW  968   0.367   1.100   2.363
  319SOL    HW1  969   0.360   1.183   2.307
  319SOL    HW2  970   0.371   1.020   2.303
  320SOL     OW  971   0.566   0.537   2.727
  320SOL    HW1  972   0.578   0.603   2.653
  320SOL    HW2  973   0.612   0.571   2.810
  321SOL     OW  974   1.252   1.348   2.250
  321SOL    HW1  975   1.302   1.425   2.290
  321SOL    HW2  976   1.157   1.350   2.282
  322SOL     OW  977   1.272   1.445   3.004
  322SOL    HW1  978   1.319   1.458   3.091
  322SOL    HW2  979   1.206   1.371   3.013
  323SOL     OW  980   1.582   0.639   2.334
  323SOL    HW1  981   1.551   0.700   2.407
  323SOL    HW2  982   1.632   0.691   2.265
  324SOL     OW  983   0.354   1.510   3.191
  324SOL    HW1  984   0.333   1.466   3.104
  324SOL    HW2  985   0.451   1.536   3.194
  325SOL     OW  986   0.402   0.751   3.460
  325SOL    HW1  987   0.470   0.806   3.413
  325SOL    HW2  988   0.442   0.663   3.487
  326SOL     OW  989   1.587   0.779   3.532
  326SOL    HW1  990   1.495   0.817   3.527
  326SOL    HW2  991   1.647   0.826   3.467
  327SOL     OW  992   1.013   0.105   3.632
  327SOL    HW1  993   1.019   0.190   3.580
  327SOL    HW2  994   1.045   0.029   3.575
  328SOL     OW  995   0.504   0.050   3.602
  328SOL    HW1  996   0.462  -0.007   3.532
  328SOL    HW2  997   0.438   0.119   3.634
  329SOL     OW  998   0.573   0.870   2.891
  329SOL    HW1  999   0.617   0.959   2.882
  329SOL    HW2 1000   0.510   0.870   2.968
  330SOL     OW 1001   1.360   0.862   2.907
  330SOL    HW1 1002   1.285   0.862   2.841
  330SOL    HW2 1003   1.397   0.770   2.916
  331SOL     OW 1004   1.209   0.525   2.137
  331SOL    HW1 1005   1.222   0.441   2.191
  331SOL    HW2 1006   1.180   0.599   2.197
  332SOL     OW 1007   0.307   0.213   3.093
  332SOL    HW1 1008   0.284   0.250   3.183
  332SOL    HW2 1009   0.277   0.118   3.087
  333SOL     OW 1010   0.037   1.310   3.144
  333SOL    HW1 1011   0.090   1.261   3.212
  333SOL    HW2 1012   0.059   1.408   3.149
  334SOL     OW 1013   0.732   0.634   2.926
  334SOL    HW1 1014   0.791   0.608   2.850
  334SOL    HW2 1015   0.704   0.730   2.915
  335SOL     OW 1016   1.728   0.935   3.716
  335SOL    HW1 1017   1.682   0.928   3.627
  335SOL    HW2 1018   1.666   0.979   3.782
  336SOL     OW 1019   0.307   0.063   2.480
  336SOL    HW1 1020   0.296   0.157   2.513
  336SOL    HW2 1021   0.302   0.000   2.557
  337SOL     OW 1022   1.622   0.367   2.236
  337SOL    HW1 1023   1.624   0.291   2.300
  337SOL    HW2 1024   1.574   0.444   2.276
  338SOL     OW 1025   1.023   0.766   2.828
  338SOL    HW1 1026   1.038   0.787   2.924
  338SOL    HW2 1027   0.993   0.671   2.819
  339SOL     OW 1028   0.980   1.573   3.562
  339SOL    HW1 1029   0.960   1.617   3.474
  339SOL    HW2 1030   1.019   1.482   3.546
  340SOL     OW 1031   1.859   1.518   3.467
  340SOL    HW1 1032   1.873   1.545   3.372
  340SOL    HW2 1033   1.942   1.540   3.520
  341SOL     OW 1034   0.350   0.898   3.666
  341SOL    HW1 1035   0.426   0.942   3.714
  341SOL    HW2 1036   0.385   0.851   3.584
  342SOL     OW 1037   1.540   0.274   1.987
  342SOL    HW1 1038   1.479   0.199   2.010
  342SOL    HW2 1039   1.562   0.326   2.070
  343SOL     OW 1040   1.303   0.838   1.904
  343SOL    HW1 1041   1.337   0.745   1.919
  343SOL    HW2 1042   1.321   0.865   1.809
  344SOL     OW 1043   1.068   1.333   2.711
  344SOL    HW1 1044   1.075   1.249   2.656
  344SOL    HW2 1045   1.130   1.402   2.675
  345SOL     OW 1046   0.319   0.810   2.811
  345SOL    HW1 1047   0.412   0.846   2.816
  345SOL    HW2 1048   0.313   0.725   2.863
  346SOL     OW 1049   0.339   0.509   2.868
  346SOL    HW1 1050   0.287   0.426   2.851
  346SOL    HW2 1051   0.416   0.514   2.804
  347SOL     OW 1052   1.138   0.380   3.540
  347SOL    HW1 1053   1.093   0.443   3.604
  347SOL    HW2 1054   1.231   0.411   3.523
  348SOL     OW 1055   1.160   0.207   3.339
  348SOL    HW1 1056   1.160   0.271   3.416
  348SOL    HW2 1057   1.188   0.255   3.256
  349SOL     OW 1058   0.008   1.326   2.062
  349SOL    HW1 1059  -0.085   1.347   2.031
  349SOL    HW2 1060   0.018   1.227   2.075
  350SOL     OW 1061   0.088   1.801   2.789
  350SOL    HW1 1062   0.046   1.715   2.762
  350SOL    HW2 1063   0.182   1.804   2.755
  351SOL     OW 1064   0.504   1.568   2.772
  351SOL    HW1 1065   0.570   1.642   2.781
  351SOL    HW2 1066   0.548   1.489   2.730
  352SOL     OW 1067   1.002   0.796   3.100
  352SOL    HW1 1068   1.043   0.764   3.186
  352SOL    HW2 1069   0.906   0.769   3.097
  353SOL     OW 1070   0.040   0.544   2.976
  353SOL    HW1 1071   0.125   0.511   2.935
  353SOL    HW2 1072   0.053   0.559   3.074
  354SOL     OW 1073   0.189   0.520   3.584
  354SOL    HW1 1074   0.248   0.480   3.514
  354SOL    HW2 1075   0.131   0.591   3.543
  355SOL     OW 1076   1.369   0.950   3.522
  355SOL    HW1 1077   1.408   1.039   3.542
  355SOL    HW2 1078   1.379   0.930   3.425
  356SOL     OW 1079   0.815   0.572   2.187
  356SOL    HW1 1080   0.822   0.483   2.141
  356SOL    HW2 1081   0.721   0.606   2.179
  357SOL     OW 1082   1.657   0.604   3.068
  357SOL    HW1 1083   1.619   0.535   3.130
  357SOL    HW2 1084   1.739   0.568   3.024
  358SOL     OW 1085   0.252   1.564   3.606
  358SOL    HW1 1086   0.222   1.621   3.682
  358SOL    HW2 1087   0.245   1.467   3.632
  359SOL     OW 1088   0.671   0.464   3.131
  359SOL    HW1 1089   0.637   0.375   3.101
  359SOL    HW2 1090   0.697   0.518   3.051
  360SOL     OW 1091   0.930   1.678   3.327
  360SOL    HW1 1092   0.906   1.660   3.232
  360SOL    HW2 1093   0.960   1.772   3.337
  361SOL     OW 1094   0.473   0.500   2.053
  361SOL    HW1 1095   0.534   0.580   2.057
  361SOL    HW2 1096   0.378   0.531   2.060
  362SOL     OW 1097   0.159   1.137   3.328
  362SOL    HW1 1098   0.181   1.076   3.404
  362SOL    HW2 1099   0.169   1.088   3.242
  363SOL     OW 1100   1.347   1.059   3.096
  363SOL    HW1 1101   1.371   0.996   3.022
  363SOL    HW2 1102   1.257   1.099   3.078
  364SOL     OW 1103   1.302   0.855   2.171
  364SOL    HW1 1104   1.216   0.824   2.213
  364SOL    HW2 1105   1.298   0.841   2.072
  365SOL     OW 1106   1.759   1.747   3.016
  365SOL    HW1 1107   1.820   1.777   2.943
  365SOL    HW2 1108   1.721   1.658   2.994
  366SOL     OW 1109   1.252   1.731   2.990
  366SOL    HW1 1110   1.336   1.736   2.936
  366SOL    HW2 1111   1.229   1.635   3.008
  367SOL     OW 1112   0.083   1.258   2.884
  367SOL    HW1 1113   0.078   1.257   2.984
  367SOL    HW2 1114   0.000   1.217   2.846
  368SOL     OW 1115   0.688   1.662   3.578
  368SOL    HW1 1116   0.632   1.743   3.587
  368SOL    HW2 1117   0.740   1.666   3.492
  369SOL     OW 1118   1.726   0.135   2.385
  369SOL    HW1 1119   1.799   0.118   2.318
  369SOL    HW2 1120   1.695   0.048   2.423
  370SOL     OW 1121   1.388   1.573   2.339
  370SOL    HW1 1122   1.455   1.585   2.265
  370SOL    HW2 1123   1.348   1.662   2.362
  371SOL     OW 1124   0.130   1.794   3.713
  371SOL    HW1 1125   0.089   1.720   3.766
  371SOL    HW2 1126   0.194   1.845   3.771
  372SOL     OW 1127   1.280   0.927   2.534
  372SOL    HW1 1128   1.340   0.846   2.536
  372SOL    HW2 1129   1.320   0.996   2.474
  373SOL     OW 1130   0.830   1.273   3.284
  373SOL    HW1 1131   0.825   1.306   3.379
  373SOL    HW2 1132   0.744   1.292   3.238
  374SOL     OW 1133   0.672   1.616   2.016
  374SOL    HW1 1134   0.681   1.626   1.917
  374SOL    HW2 1135   0.632   1.527   2.037
  375SOL     OW 1136   1.650   1.720   3.256
  375SOL    HW1 1137   1.703   1.730   3.172
  375SOL    HW2 1138   1.623   1.810   3.290
  376SOL     OW 1139   1.841   0.175   2.825
  376SOL    HW1 1140   1.880   0.090   2.789
  376SOL    HW2 1141   1.743   0.177   2.806
  377SOL     OW 1142   0.263   0.326   2.582
  377SOL    HW1 1143   0.184   0.377   2.548
  377SOL    HW2 1144   0.254   0.311   2.680
  378SOL     OW 1145   1.194   1.612   1.893
  378SOL    HW1 1146   1.200   1.519   1.930
  378SOL    HW2 1147   1.135   1.612   1.813
  379SOL     OW 1148   0.822   1.002   3.234
  379SOL    HW1 1149   0.862   1.001   3.142
  379SOL    HW2 1150   0.832   1.094   3.274
  380SOL     OW 1151   0.916   0.910   2.153
  380SOL    HW1 1152   0.979   0.948   2.085
  380SOL    HW2 1153   0.956   0.827   2.192
  381SOL     OW 1154   1.504   1.607   1.906
  381SOL    HW1 1155   1.412   1.644   1.913
  381SOL    HW2 1156   1.542   1.627   1.816
  382SOL     OW 1157   0.372   1.288   3.352
  382SOL    HW1 1158   0.359   1.381   3.318
  382SOL    HW2 1159   0.288   1.236   3.339
  383SOL     OW 1160   1.614   1.292   3.151
  383SOL    HW1 1161   1.674   1.295   3.231
  383SOL    HW2 1162   1.539   1.356   3.164
  384SOL     OW 1163   1.039   1.098   2.558
  384SOL    HW1 1164   0.969   1.051   2.612
  384SOL    HW2 1165   1.098   1.030   2.515
  385SOL     OW 1166   1.014   0.236   2.833
  385SOL    HW1 1167   1.006   0.200   2.740
  385SOL    HW2 1168   1.012   0.160   2.898
  386SOL     OW 1169   0.590   1.487   2.353
  386SOL    HW1 1170   0.632   1.429   2.283
  386SOL    HW2 1171   0.546   1.566   2.309
  387SOL     OW 1172   1.709   0.385   3.243
  387SOL    HW1 1173   1.782   0.454   3.247
  387SOL    HW2 1174   1.737   0.310   3.184
  388SOL     OW 1175   0.255   1.348   2.152
  388SOL    HW1 1176   0.159   1.349   2.125
  388SOL    HW2 1177   0.267   1.401   2.236
  389SOL     OW 1178   0.105   1.013   3.588
  389SOL    HW1 1179   0.028   0.980   3.642
  389SOL    HW2 1180   0.190   0.983   3.630
  390SOL     OW 1181   0.672   0.203   3.351
  390SOL    HW1 1182   0.762   0.187   3.311
  390SOL    HW2 1183   0.680   0.208   3.450
  391SOL     OW 1184   0.075   0.345   1.895
  391SOL    HW1 1185  -0.017   0.317   1.866
  391SOL    HW2 1186   0.106   0.422   1.839
  392SOL     OW 1187   1.440   0.856   3.260
  392SOL    HW1 1188   1.383   0.908   3.197
  392SOL    HW2 1189   1.536   0.868   3.236
  393SOL     OW 1190   0.072   0.166   2.180
  393SOL    HW1 1191   0.055   0.249   2.126
  393SOL    HW2 1192   0.162   0.129   2.158
  394SOL     OW 1193   1.183   1.335   1.981
  394SOL    HW1 1194   1.084   1.324   1.983
  394SOL    HW2 1195   1.217   1.350   2.074
  395SOL     OW 1196   0.613   0.842   3.293
  395SOL    HW1 1197   0.669   0.923   3.276
  395SOL    HW2 1198   0.672   0.762   3.296
  396SOL     OW 1199   1.493   1.767   2.821
  396SOL    HW1 1200   1.526   1.831   2.752
  396SOL    HW2 1201   1.559   1.761   2.896
  397SOL     OW 1202   0.716   0.565   3.570
  397SOL    HW1 1203   0.735   0.630   3.644
  397SOL    HW2 1204   0.776   0.485   3.579
  398SOL     OW 1205   1.450   1.220   3.495
  398SOL    HW1 1206   1.441   1.210   3.594
  398SOL    HW2 1207   1.546   1.213   3.469
  399SOL     OW 1208   0.390   1.741   3.422
  399SOL    HW1 1209   0.299   1.782   3.420
  399SOL    HW2 1210   0.383   1.647   3.454
  400SOL     OW 1211   1.674   0.883   3.116
  400SOL    HW1 1212   1.647   0.794   3.079
  400SOL    HW2 1213   1.675   0.951   3.043
  401SOL     OW 1214   1.225   0.325   2.311
  401SOL    HW1 1215   1.290   0.251   2.300
  401SOL    HW2 1216   1.245   0.375   2.395
  402SOL     OW 1217   0.594   0.745   2.514
  402SOL    HW1 1218   0.644   0.830   2.495
  402SOL    HW2 1219   0.506   0.747   2.466
  403SOL     OW 1220   1.777   0.342   3.504
  403SOL    HW1 1221   1.760   0.373   3.410
  403SOL    HW2 1222   1.693   0.305   3.542
  404SOL     OW 1223   1.730   0.934   3.379
  404SOL    HW1 1224   1.768   1.025   3.394
  404SOL    HW2 1225   1.722   0.917   3.280
  405SOL     OW 1226   0.859   1.374   1.878
  405SOL    HW1 1227   0.813   1.389   1.966
  405SOL    HW2 1228   0.903   1.459   1.848
  406SOL     OW 1229   0.661   1.790   2.815
  406SOL    HW1 1230   0.615   1.878   2.802
  406SOL    HW2 1231   0.760   1.802   2.808
  407SOL     OW 1232   0.859   0.956   2.723
  407SOL    HW1 1233   0.913   0.887   2.771
  407SOL    HW2 1234   0.827   1.025   2.789
  408SOL     OW 1235   1.083   0.984   1.949
  408SOL    HW1 1236   1.060   1.037   1.867
  408SOL    HW2 1237   1.164   0.928   1.930
  409SOL     OW 1238   1.861   1.569   2.713
  409SOL    HW1 1239   1.790   1.557   2.643
  409SOL    HW2 1240   1.862   1.490   2.773
  410SOL     OW 1241   0.221   1.314   3.706
  410SOL    HW1 1242   0.156   1.241   3.685
  410SOL    HW2 1243   0.225   1.328   3.804
  411SOL     OW 1244   0.079   1.240   2.515
  411SOL    HW1 1245   0.078   1.193   2.603
  411SOL    HW2 1246   0.161   1.212   2.464
  412SOL     OW 1247   0.672   1.391   3.486
  412SOL    HW1 1248   0.594   1.341   3.524
  412SOL    HW2 1249   0.669   1.486   3.517
  413SOL     OW 1250   1.824   0.192   3.089
  413SOL    HW1 1251   1.820   0.102   3.133
  413SOL    HW2 1252   1.827   0.181   2.990
  414SOL     OW 1253   0.428   0.424   2.382
  414SOL    HW1 1254   0.458   0.352   2.320
  414SOL    HW2 1255   0.389   0.384   2.465
  415SOL     OW 1256   1.705   1.487   2.966
  415SOL    HW1 1257   1.612   1.462   2.939
  415SOL    HW2 1258   1.731   1.437   3.048
  416SOL     OW 1259   0.317   0.547   3.142
  416SOL    HW1 1260   0.355   0.488   3.214
  416SOL    HW2 1261   0.357   0.521   3.054
  417SOL     OW 1262   0.812   1.586   2.549
  417SOL    HW1 1263   0.844   1.596   2.455
  417SOL    HW2 1264   0.733   1.524   2.551
  418SOL     OW 1265   1.424   0.214   2.974
  418SOL    HW1 1266   1.476   0.149   3.029
  418SOL    HW2 1267   1.375   0.277   3.035
  419SOL     OW 1268   1.001   0.034   3.016
  419SOL    HW1 1269   0.938  -0.038   2.985
  419SOL    HW2 1270   1.094  -0.002   3.016
  420SOL     OW 1271   0.770   1.330   2.163
  420SOL    HW1 1272   0.724   1.243   2.180
  420SOL    HW2 1273   0.861   1.327   2.204
  421SOL     OW 1274   0.618   1.567   3.146
  421SOL    HW1 1275   0.613   1.649   3.203
  421SOL    HW2 1276   0.707   1.564   3.101
  422SOL     OW 1277   1.352   0.052   2.030
  422SOL    HW1 1278   1.387   0.011   1.946
  422SOL    HW2 1279   1.262   0.014   2.050
  423SOL     OW 1280   1.300   0.453   2.553
  423SOL    HW1 1281   1.241   0.533   2.557
  423SOL    HW2 1282   1.315   0.418   2.646
  424SOL     OW 1283   1.593   0.221   2.744
  424SOL    HW1 1284   1.509   0.220   2.798
  424SOL    HW2 1285   1.595   0.304   2.688
  425SOL     OW 1286   0.039   1.077   2.162
  425SOL    HW1 1287   0.138   1.066   2.153
  425SOL    HW2 1288  -0.001   0.991   2.194
  426SOL     OW 1289   0.875   1.646   2.199
  426SOL    HW1 1290   0.798   1.611   2.145
  426SOL    HW2 1291   0.843   1.717   2.261
  427SOL     OW 1292   0.230   0.628   3.837
  427SOL    HW1 1293   0.137   0.626   3.874
  427SOL    HW2 1294   0.231   0.589   3.745
  428SOL     OW 1295   0.019   0.368   4.371
  428SOL    HW1 1296  -0.063   0.411   4.410
  428SOL    HW2 1297  -0.009   0.295   4.308
  429SOL     OW 1298   1.555   1.511   4.427
  429SOL    HW1 1299   1.498   1.495   4.508
  429SOL    HW2 1300   1.496   1.521   4.347
  430SOL     OW 1301   1.135   0.703   4.441
  430SOL    HW1 1302   1.192   0.781   4.416
  430SOL    HW2 1303   1.075   0.729   4.517
  431SOL     OW 1304   1.755   0.607   3.955
  431SOL    HW1 1305   1.743   0.594   3.856
  431SOL    HW2 1306   1.725   0.526   4.004
  432SOL     OW 1307   0.685   1.012   4.389
  432SOL    HW1 1308   0.754   0.996   4.459
  432SOL    HW2 1309   0.612   1.069   4.427
  433SOL     OW 1310   1.603   0.447   4.461
  433SOL    HW1 1311   1.529   0.493   4.411
  433SOL    HW2 1312   1.654   0.515   4.514
  434SOL     OW 1313   0.231   1.713   4.207
  434SOL    HW1 1314   0.265   1.790   4.261
  434SOL    HW2 1315   0.275   1.713   4.117
  435SOL     OW 1316   0.230   1.434   4.262
  435SOL    HW1 1317   0.204   1.530   4.262
  435SOL    HW2 1318   0.159   1.380   4.307
  436SOL     OW 1319   0.240   1.091   4.610
  436SOL    HW1 1320   0.254   1.007   4.662
  436SOL    HW2 1321   0.185   1.155   4.665
  437SOL     OW 1322   0.606   0.964   3.847
  437SOL    HW1 1323   0.613   1.048   3.793
  437SOL    HW2 1324   0.652   0.977   3.935
  438SOL     OW 1325   0.122   0.643   4.287
  438SOL    HW1 1326   0.077   0.555   4.304
  438SOL    HW2 1327   0.121   0.697   4.371
  439SOL     OW 1328   1.842   1.767   4.083
  439SOL    HW1 1329   1.896   1.738   4.163
  439SOL    HW2 1330   1.872   1.857   4.054
  440SOL     OW 1331   0.027   1.596   3.841
  440SOL    HW1 1332   0.008   1.500   3.862
  440SOL    HW2 1333  -0.006   1.654   3.916
  441SOL     OW 1334   1.689   0.922   4.336
  441SOL    HW1 1335   1.784   0.893   4.344
  441SOL    HW2 1336   1.681   0.987   4.261
  442SOL     OW 1337   1.641   1.108   4.156
  442SOL    HW1 1338   1.727   1.110   4.104
  442SOL    HW2 1339   1.655   1.155   4.244
  443SOL     OW 1340   0.613   1.365   4.450
  443SOL    HW1 1341   0.564   1.278   4.459
  443SOL    HW2 1342   0.590   1.408   4.363
  444SOL     OW 1343   0.809   0.004   4.226
  444SOL    HW1 1344   0.849   0.095   4.217
  444SOL    HW2 1345   0.709   0.012   4.232
  445SOL     OW 1346   1.525   0.999   3.914
  445SOL    HW1 1347   1.462   0.923   3.927
  445SOL    HW2 1348   1.573   1.017   4.000
  446SOL     OW 1349   1.466   1.417   4.677
  446SOL    HW1 1350   1.407   1.423   4.757
  446SOL    HW2 1351   1.451   1.329   4.631
  447SOL     OW 1352   1.667   1.714   4.296
  447SOL    HW1 1353   1.626   1.691   4.208
  447SOL    HW2 1354   1.649   1.640   4.361
  448SOL     OW 1355   0.598   0.729   3.994
  448SOL    HW1 1356   0.622   0.798   3.926
  448SOL    HW2 1357   0.520   0.762   4.048
  449SOL     OW 1358   1.281   0.345   4.668
  449SOL    HW1 1359   1.195   0.295   4.655
  449SOL    HW2 1360   1.343   0.291   4.724
  450SOL     OW 1361   1.576   1.662   4.031
  450SOL    HW1 1362   1.665   1.708   4.034
  450SOL    HW2 1363   1.555   1.638   3.936
  451SOL     OW 1364   1.041   0.701   4.153
  451SOL    HW1 1365   1.067   0.697   4.249
  451SOL    HW2 1366   0.956   0.650   4.139
  452SOL     OW 1367   0.076   0.811   4.513
  452SOL    HW1 1368   0.175   0.799   4.522
  452SOL    HW2 1369   0.052   0.906   4.534
  453SOL     OW 1370   0.865   0.348   3.919
  453SOL    HW1 1371   0.924   0.411   3.870
  453SOL    HW2 1372   0.884   0.254   3.890
  454SOL     OW 1373   1.362   1.144   4.269
  454SOL    HW1 1374   1.445   1.115   4.221
  454SOL    HW2 1375   1.313   1.211   4.213
  455SOL     OW 1376   1.008   1.456   4.201
  455SOL    HW1 1377   0.962   1.528   4.149
  455SOL    HW2 1378   1.004   1.476   4.299
  456SOL     OW 1379   0.351   1.801   4.577
  456SOL    HW1 1380   0.401   1.715   4.583
  456SOL    HW2 1381   0.416   1.878   4.574
  457SOL     OW 1382   1.795   1.066   4.597
  457SOL    HW1 1383   1.733   1.051   4.521
  457SOL    HW2 1384   1.743   1.077   4.682
  458SOL     OW 1385   0.321   0.943   3.966
  458SOL    HW1 1386   0.403   0.982   3.924
  458SOL    HW2 1387   0.294   0.861   3.917
  459SOL     OW 1388   1.458   0.735   4.452
  459SOL    HW1 1389   1.453   0.670   4.527
  459SOL    HW2 1390   1.538   0.794   4.465
  460SOL     OW 1391   1.111   1.776   3.961
  460SOL    HW1 1392   1.051   1.714   4.011
  460SOL    HW2 1393   1.142   1.732   3.876
  461SOL     OW 1394   1.632   1.377   3.805
  461SOL    HW1 1395   1.600   1.471   3.795
  461SOL    HW2 1396   1.556   1.314   3.793
  462SOL     OW 1397   0.464   1.743   4.047
  462SOL    HW1 1398   0.497   1.782   4.133
  462SOL    HW2 1399   0.540   1.736   3.982
  463SOL     OW 1400   1.400   0.107   4.150
  463SOL    HW1 1401   1.376   0.070   4.060
  463SOL    HW2 1402   1.499   0.123   4.154
  464SOL     OW 1403   0.382   0.700   4.204
  464SOL    HW1 1404   0.427   0.610   4.201
  464SOL    HW2 1405   0.288   0.689   4.237
  465SOL     OW 1406   0.614   0.122   3.841
  465SOL    HW1 1407   0.712   0.100   3.848
  465SOL    HW2 1408   0.583   0.105   3.748
  466SOL     OW 1409   0.539   0.064   4.236
  466SOL    HW1 1410   0.458   0.065   4.294
  466SOL    HW2 1411   0.542   0.147   4.181
  467SOL     OW 1412   1.434   1.188   3.765
  467SOL    HW1 1413   1.466   1.112   3.822
  467SOL    HW2 1414   1.342   1.215   3.795
  468SOL     OW 1415   0.297   0.035   3.895
  468SOL    HW1 1416   0.346   0.119   3.874
  468SOL    HW2 1417   0.359  -0.030   3.940
  469SOL     OW 1418   0.935   0.236   4.204
  469SOL    HW1 1419   0.887   0.277   4.126
  469SOL    HW2 1420   1.034   0.234   4.185
  470SOL     OW 1421   1.227   1.570   4.517
  470SOL    HW1 1422   1.248   1.644   4.452
  470SOL    HW2 1423   1.295   1.570   4.590
  471SOL     OW 1424   0.459   1.152   4.465
  471SOL    HW1 1425   0.388   1.125   4.530
  471SOL    HW2 1426   0.433   1.124   4.372
  472SOL     OW 1427   1.271   1.797   4.315
  472SOL    HW1 1428   1.315   1.861   4.251
  472SOL    HW2 1429   1.221   1.849   4.385
  473SOL     OW 1430   1.032   0.549   3.740
  473SOL    HW1 1431   0.991   0.631   3.701
  473SOL    HW2 1432   1.096   0.575   3.813
  474SOL     OW 1433   0.866   0.454   4.366
  474SOL    HW1 1434   0.834   0.526   4.304
  474SOL    HW2 1435   0.890   0.373   4.313
  475SOL     OW 1436   1.017   0.039   4.477
  475SOL    HW1 1437   0.945   0.044   4.408
  475SOL    HW2 1438   0.993  -0.030   4.546
  476SOL     OW 1439   1.857   0.833   4.101
  476SOL    HW1 1440   1.899   0.769   4.165
  476SOL    HW2 1441   1.819   0.782   4.023
  477SOL     OW 1442   0.488   1.385   3.898
  477SOL    HW1 1443   0.401   1.370   3.945
  477SOL    HW2 1444   0.471   1.411   3.803
  478SOL     OW 1445   1.664   1.280   4.381
  478SOL    HW1 1446   1.763   1.288   4.395
  478SOL    HW2 1447   1.619   1.364   4.412
  479SOL     OW 1448   1.390   0.575   3.802
  479SOL    HW1 1449   1.336   0.554   3.883
  479SOL    HW2 1450   1.481   0.534   3.811
  480SOL     OW 1451   0.527   0.256   4.052
  480SOL    HW1 1452   0.554   0.197   3.977
  480SOL    HW2 1453   0.527   0.351   4.021
  481SOL     OW 1454   0.705   1.050   4.092
  481SOL    HW1 1455   0.691   1.057   4.191
  481SOL    HW2 1456   0.789   0.999   4.074
  482SOL     OW 1457   0.367   1.100   4.225
  482SOL    HW1 1458   0.360   1.183   4.169
  482SOL    HW2 1459   0.371   1.020   4.165
  483SOL     OW 1460   0.566   0.537   4.589
  483SOL    HW1 1461   0.578   0.603   4.515
  483SOL    HW2 1462   0.612   0.571   4.672
  484SOL     OW 1463   1.252   1.348   4.112
  484SOL    HW1 1464   1.302   1.425   4.152
  484SOL    HW2 1465   1.157   1.350   4.144
  485SOL     OW 1466   1.582   0.639   4.196
  485SOL    HW1 1467   1.551   0.700   4.269
  485SOL    HW2 1468   1.632   0.691   4.127
  486SOL     OW 1469   1.209   0.525   3.999
  486SOL    HW1 1470   1.222   0.441   4.053
  486SOL    HW2 1471   1.180   0.599   4.059
  487SOL     OW 1472   0.732   0.634   4.788
  487SOL    HW1 1473   0.791   0.608   4.712
  487SOL    HW2 1474   0.704   0.730   4.777
  488SOL     OW 1475   0.307   0.063   4.342
  488SOL    HW1 1476   0.296   0.157   4.375
  488SOL    HW2 1477   0.302   0.000   4.419
  489SOL     OW 1478   1.622   0.367   4.098
  489SOL    HW1 1479   1.624   0.291   4.162
  489SOL    HW2 1480   1.574   0.444   4.138
  490SOL     OW 1481   1.540   0.274   3.849
  490SOL    HW1 1482   1.479   0.199   3.872
  490SOL    HW2 1483   1.562   0.326   3.932
  491SOL     OW 1484   1.303   0.838   3.766
  491SOL    HW1 1485   1.337   0.745   3.781
  491SOL    HW2 1486   1.321   0.865   3.671
  492SOL     OW 1487   1.068   1.333   4.573
  492SOL    HW1 1488   1.075   1.249   4.518
  492SOL    HW2 1489   1.130   1.402   4.537
  493SOL     OW 1490   0.008   1.326   3.924
  493SOL    HW1 1491  -0.085   1.347   3.893
  493SOL    HW2 1492   0.018   1.227   3.937
  494SOL     OW 1493   0.088   1.801   4.651
  494SOL    HW1 1494   0.046   1.715   4.624
  494SOL    HW2 1495   0.182   1.804   4.617
  495SOL     OW 1496   0.504   1.568   4.634
  495SOL    HW1 1497   0.570   1.642   4.643
  495SOL    HW2 1498   0.548   1.489   4.592
  496SOL     OW 1499   0.815   0.572   4.049
  496SOL    HW1 1500   0.822   0.483   4.003
  496SOL    HW2 1501   0.721   0.606   4.041
  497SOL     OW 1502   0.473   0.500   3.915
  497SOL    HW1 1503   0.534   0.580   3.919
  497SOL    HW2 1504   0.378   0.531   3.922
  498SOL     OW 1505   1.302   0.855   4.033
  498SOL    HW1 1506   1.216   0.824   4.075
  498SOL    HW2 1507   1.298   0.841   3.934
  499SOL     OW 1508   1.726   0.135   4.247
  499SOL    HW1 1509   1.799   0.118   4.180
  499SOL    HW2 1510   1.695   0.048   4.285
  500SOL     OW 1511   1.388   1.573   4.201
  500SOL    HW1 1512   1.455   1.585   4.127
  500SOL    HW2 1513   1.348   1.662   4.224
  501SOL     OW 1514   1.280   0.927   4.396
  501SOL    HW1 1515   1.340   0.846   4.398
  501SOL    HW2 1516   1.320   0.996   4.336
  502SOL     OW 1517   0.672   1.616   3.878
  502SOL    HW1 1518   0.681   1.626   3.779
  502SOL    HW2 1519   0.632   1.527   3.899
  503SOL     OW 1520   1.841   0.175   4.687
  503SOL    HW1 1521   1.880   0.090   4.651
  503SOL    HW2 1522   1.743   0.177   4.668
  504SOL     OW 1523   0.263   0.326   4.444
  504SOL    HW1 1524   0.184   0.377   4.410
  504SOL    HW2 1525   0.254   0.311   4.542
  505SOL     OW 1526   1.194   1.612   3.755
  505SOL    HW1 1527   1.200   1.519   3.792
  505SOL    HW2 1528   1.135   1.612   3.675
  506SOL     OW 1529   0.916   0.910   4.015
  506SOL    HW1 1530   0.979   0.948   3.947
  506SOL    HW2 1531   0.956   0.827   4.054
  507SOL     OW 1532   1.504   1.607   3.768
  507SOL    HW1 1533   1.412   1.644   3.775
  507SOL    HW2 1534   1.542   1.627   3.678
  508SOL     OW 1535   1.039   1.098   4.420
  508SOL    HW1 1536   0.969   1.051   4.474
  508SOL    HW2 1537   1.098   1.030   4.377
  509SOL     OW 1538   0.590   1.487   4.215
  509SOL    HW1 1539   0.632   1.429   4.145
  509SOL    HW2 1540   0.546   1.566   4.171
  510SOL     OW 1541   0.255   1.348   4.014
  510SOL    HW1 1542   0.159   1.349   3.987
  510SOL    HW2 1543   0.267   1.401   4.098
  511SOL     OW 1544   0.075   0.345   3.757
  511SOL    HW1 1545  -0.017   0.317   3.728
  511SOL    HW2 1546   0.106   0.422   3.701
  512SOL     OW 1547   0.072   0.166   4.042
  512SOL    HW1 1548   0.055   0.249   3.988
  512SOL    HW2 1549   0.162   0.129   4.020
  513SOL     OW 1550   1.183   1.335   3.843
  513SOL    HW1 1551   1.084   1.324   3.845
  513SOL    HW2 1552   1.217   1.350   3.936
  514SOL     OW 1553   1.225   0.325   4.173
  514SOL    HW1 1554   1.290   0.251   4.162
  514SOL    HW2 1555   1.245   0.375   4.257
  515SOL     OW 1556   0.594   0.745   4.376
  515SOL    HW1 1557   0.644   0.830   4.357
  515SOL    HW2 1558   0.506   0.747   4.328
  516SOL     OW 1559   0.859   1.374   3.740
  516SOL    HW1 1560   0.813   1.389   3.828
  516SOL    HW2 1561   0.903   1.459   3.710
  517SOL     OW 1562   0.661   1.790   4.677
  517SOL    HW1 1563   0.615   1.878   4.664
  517SOL    HW2 1564   0.760   1.802   4.670
  518SOL     OW 1565   0.859   0.956   4.585
  518SOL    HW1 1566   0.913   0.887   4.633
  518SOL    HW2 1567   0.827   1.025   4.651
  519SOL     OW 1568   1.083   0.984   3.811
  519SOL    HW1 1569   1.060   1.037   3.729
  519SOL    HW2 1570   1.164   0.928   3.792
  520SOL     OW 1571   1.861   1.569   4.575
  520SOL    HW1 1572   1.790   1.557   4.505
  520SOL    HW2 1573   1.862   1.490   4.635
  521SOL     OW 1574   0.079   1.240   4.377
  521SOL    HW1 1575   0.078   1.193   4.465
  521SOL    HW2 1576   0.161   1.212   4.326
  522SOL     OW 1577   1.824   0.192   4.951
  522SOL    HW1 1578   1.820   0.102   4.995
  522SOL    HW2 1579   1.827   0.181   4.852
  523SOL     OW 1580   0.428   0.424   4.244
  523SOL    HW1 1581   0.458   0.352   4.182
  523SOL    HW2 1582   0.389   0.384   4.327
  524SOL     OW 1583   0.812   1.586   4.411
  524SOL    HW1 1584   0.844   1.596   4.317
  524SOL    HW2 1585   0.733   1.524   4.413
  525SOL     OW 1586   0.770   1.330   4.025
  525SOL    HW1 1587   0.724   1.243   4.042
  525SOL    HW2 1588   0.861   1.327   4.066
  526SOL     OW 1589   1.352   0.052   3.892
  526SOL    HW1 1590   1.387   0.011   3.808
  526SOL    HW2 1591   1.262   0.014   3.912
  527SOL     OW 1592   1.300   0.453   4.415
  527SOL    HW1 1593   1.241   0.533   4.419
  527SOL    HW2 1594   1.315   0.418   4.508
  528SOL     OW 1595   1.593   0.221   4.606
  528SOL    HW1 1596   1.509   0.220   4.660
  528SOL    HW2 1597   1.595   0.304   4.550
  529SOL     OW 1598   0.039   1.077   4.024
  529SOL    HW1 1599   0.138   1.066   4.015
  529SOL    HW2 1600  -0.001   0.991   4.056
  530SOL     OW 1601   0.875   1.646   4.061
  530SOL    HW1 1602   0.798   1.611   4.007
  530SOL    HW2 1603   0.843   1.717   4.123
  531SOL     OW 1604   0.230   2.490   0.113
  531SOL    HW1 1605   0.137   2.488   0.150
  531SOL    HW2 1606   0.231   2.451   0.021
  532SOL     OW 1607   0.225   2.137   0.996
  532SOL    HW1 1608   0.260   2.120   1.088
  532SOL    HW2 1609   0.137   2.092   0.984
  533SOL     OW 1610   0.019   2.230   0.647
  533SOL    HW1 1611  -0.063   2.273   0.686
  533SOL    HW2 1612  -0.009   2.157   0.584
  534SOL     OW 1613   0.569   3.137   1.165
  534SOL    HW1 1614   0.476   3.130   1.128
  534SOL    HW2 1615   0.580   3.226   1.209
  535SOL     OW 1616   1.555   3.373   0.703
  535SOL    HW1 1617   1.498   3.357   0.784
  535SOL    HW2 1618   1.496   3.383   0.623
  536SOL     OW 1619   1.135   2.565   0.717
  536SOL    HW1 1620   1.192   2.643   0.692
  536SOL    HW2 1621   1.075   2.591   0.793
  537SOL     OW 1622   1.755   2.469   0.231
  537SOL    HW1 1623   1.743   2.456   0.132
  537SOL    HW2 1624   1.725   2.388   0.280
  538SOL     OW 1625   0.768   3.006   1.023
  538SOL    HW1 1626   0.690   3.023   1.083
  538SOL    HW2 1627   0.802   3.093   0.987
  539SOL     OW 1628   0.850   2.660   1.823
  539SOL    HW1 1629   0.846   2.736   1.888
  539SOL    HW2 1630   0.872   2.696   1.732
  540SOL     OW 1631   0.685   2.874   0.665
  540SOL    HW1 1632   0.754   2.858   0.735
  540SOL    HW2 1633   0.612   2.931   0.703
  541SOL     OW 1634   0.686   3.023   1.803
  541SOL    HW1 1635   0.746   3.102   1.817
  541SOL    HW2 1636   0.600   3.054   1.762
  542SOL     OW 1637   0.335   3.297   1.061
  542SOL    HW1 1638   0.257   3.266   1.008
  542SOL    HW2 1639   0.393   3.355   1.004
  543SOL     OW 1640   1.460   3.367   1.339
  543SOL    HW1 1641   1.484   3.461   1.365
  543SOL    HW2 1642   1.444   3.313   1.421
  544SOL     OW 1643   0.438   2.254   1.499
  544SOL    HW1 1644   0.520   2.198   1.508
  544SOL    HW2 1645   0.357   2.196   1.503
  545SOL     OW 1646   1.603   2.309   0.737
  545SOL    HW1 1647   1.529   2.355   0.687
  545SOL    HW2 1648   1.654   2.377   0.790
  546SOL     OW 1649   0.231   3.575   0.483
  546SOL    HW1 1650   0.265   3.652   0.537
  546SOL    HW2 1651   0.275   3.575   0.393
  547SOL     OW 1652   1.127   3.203   1.690
  547SOL    HW1 1653   1.174   3.203   1.778
  547SOL    HW2 1654   1.079   3.116   1.679
  548SOL     OW 1655   0.230   3.296   0.538
  548SOL    HW1 1656   0.204   3.392   0.538
  548SOL    HW2 1657   0.159   3.242   0.583
  549SOL     OW 1658   0.240   2.953   0.886
  549SOL    HW1 1659   0.254   2.869   0.938
  549SOL    HW2 1660   0.185   3.017   0.941
  550SOL     OW 1661   0.620   3.648   1.439
  550SOL    HW1 1662   0.528   3.631   1.474
  550SOL    HW2 1663   0.648   3.740   1.465
  551SOL     OW 1664   0.606   2.826   0.123
  551SOL    HW1 1665   0.613   2.910   0.069
  551SOL    HW2 1666   0.652   2.839   0.211
  552SOL     OW 1667   1.594   1.976   1.480
  552SOL    HW1 1668   1.576   2.043   1.408
  552SOL    HW2 1669   1.591   2.022   1.569
  553SOL     OW 1670   0.122   2.505   0.563
  553SOL    HW1 1671   0.077   2.417   0.580
  553SOL    HW2 1672   0.121   2.559   0.647
  554SOL     OW 1673   1.842   3.629   0.359
  554SOL    HW1 1674   1.896   3.600   0.439
  554SOL    HW2 1675   1.872   3.719   0.330
  555SOL     OW 1676   0.027   3.458   0.117
  555SOL    HW1 1677   0.008   3.362   0.138
  555SOL    HW2 1678  -0.006   3.516   0.192
  556SOL     OW 1679   1.689   2.784   0.612
  556SOL    HW1 1680   1.784   2.755   0.620
  556SOL    HW2 1681   1.681   2.849   0.537
  557SOL     OW 1682   1.641   2.970   0.432
  557SOL    HW1 1683   1.727   2.972   0.380
  557SOL    HW2 1684   1.655   3.017   0.520
  558SOL     OW 1685   0.113   2.599   1.597
  558SOL    HW1 1686   0.201   2.586   1.642
  558SOL    HW2 1687   0.100   2.696   1.575
  559SOL     OW 1688   0.613   3.227   0.726
  559SOL    HW1 1689   0.564   3.140   0.735
  559SOL    HW2 1690   0.590   3.270   0.639
  560SOL     OW 1691   1.293   3.090   1.423
  560SOL    HW1 1692   1.330   3.017   1.365
  560SOL    HW2 1693   1.345   3.095   1.508
  561SOL     OW 1694   0.809   1.866   0.502
  561SOL    HW1 1695   0.849   1.957   0.493
  561SOL    HW2 1696   0.709   1.874   0.508
  562SOL     OW 1697   0.197   2.838   1.264
  562SOL    HW1 1698   0.286   2.793   1.250
  562SOL    HW2 1699   0.124   2.773   1.245
  563SOL     OW 1700   1.525   2.861   0.190
  563SOL    HW1 1701   1.462   2.785   0.203
  563SOL    HW2 1702   1.573   2.879   0.276
  564SOL     OW 1703   1.187   3.654   1.616
  564SOL    HW1 1704   1.211   3.714   1.540
  564SOL    HW2 1705   1.194   3.559   1.586
  565SOL     OW 1706   0.317   2.113   1.801
  565SOL    HW1 1707   0.388   2.184   1.807
  565SOL    HW2 1708   0.229   2.152   1.829
  566SOL     OW 1709   1.466   3.279   0.953
  566SOL    HW1 1710   1.407   3.285   1.033
  566SOL    HW2 1711   1.451   3.191   0.907
  567SOL     OW 1712   1.667   3.576   0.572
  567SOL    HW1 1713   1.626   3.553   0.484
  567SOL    HW2 1714   1.649   3.502   0.637
  568SOL     OW 1715   0.598   2.591   0.270
  568SOL    HW1 1716   0.622   2.660   0.202
  568SOL    HW2 1717   0.520   2.624   0.324
  569SOL     OW 1718   1.281   2.207   0.944
  569SOL    HW1 1719   1.195   2.157   0.931
  569SOL    HW2 1720   1.343   2.153   1.000
  570SOL     OW 1721   1.576   3.524   0.307
  570SOL    HW1 1722   1.665   3.570   0.310
  570SOL    HW2 1723   1.555   3.500   0.212
  571SOL     OW 1724   0.807   2.467   1.465
  571SOL    HW1 1725   0.760   2.464   1.554
  571SOL    HW2 1726   0.756   2.412   1.399
  572SOL     OW 1727   1.394   2.331   1.674
  572SOL    HW1 1728   1.374   2.374   1.762
  572SOL    HW2 1729   1.472   2.269   1.683
  573SOL     OW 1730   0.973   2.752   1.572
  573SOL    HW1 1731   1.019   2.668   1.543
  573SOL    HW2 1732   0.917   2.786   1.497
  574SOL     OW 1733   0.991   2.272   1.242
  574SOL    HW1 1734   0.914   2.306   1.296
  574SOL    HW2 1735   0.957   2.221   1.163
  575SOL     OW 1736   1.041   2.563   0.429
  575SOL    HW1 1737   1.067   2.559   0.525
  575SOL    HW2 1738   0.956   2.512   0.415
  576SOL     OW 1739   0.076   2.673   0.789
  576SOL    HW1 1740   0.175   2.661   0.798
  576SOL    HW2 1741   0.052   2.768   0.810
  577SOL     OW 1742   0.130   3.683   1.571
  577SOL    HW1 1743   0.120   3.668   1.670
  577SOL    HW2 1744   0.044   3.719   1.535
  578SOL     OW 1745   0.865   2.210   0.195
  578SOL    HW1 1746   0.924   2.273   0.146
  578SOL    HW2 1747   0.884   2.116   0.166
  579SOL     OW 1748   1.719   2.447   1.831
  579SOL    HW1 1749   1.693   2.536   1.795
  579SOL    HW2 1750   1.717   2.379   1.758
  580SOL     OW 1751   1.362   3.006   0.545
  580SOL    HW1 1752   1.445   2.977   0.497
  580SOL    HW2 1753   1.313   3.073   0.489
  581SOL     OW 1754   0.550   2.058   0.885
  581SOL    HW1 1755   0.545   2.053   0.985
  581SOL    HW2 1756   0.552   2.154   0.856
  582SOL     OW 1757   1.008   3.318   0.477
  582SOL    HW1 1758   0.962   3.390   0.425
  582SOL    HW2 1759   1.004   3.338   0.575
  583SOL     OW 1760   0.351   3.663   0.853
  583SOL    HW1 1761   0.401   3.577   0.859
  583SOL    HW2 1762   0.416   3.740   0.850
  584SOL     OW 1763   1.795   2.928   0.873
  584SOL    HW1 1764   1.733   2.913   0.797
  584SOL    HW2 1765   1.743   2.939   0.958
  585SOL     OW 1766   1.227   3.412   1.506
  585SOL    HW1 1767   1.233   3.335   1.570
  585SOL    HW2 1768   1.175   3.386   1.426
  586SOL     OW 1769   0.321   2.805   0.242
  586SOL    HW1 1770   0.403   2.844   0.200
  586SOL    HW2 1771   0.294   2.723   0.193
  587SOL     OW 1772   1.458   2.597   0.728
  587SOL    HW1 1773   1.453   2.532   0.803
  587SOL    HW2 1774   1.538   2.656   0.741
  588SOL     OW 1775   0.461   3.128   1.727
  588SOL    HW1 1776   0.411   3.129   1.641
  588SOL    HW2 1777   0.398   3.110   1.803
  589SOL     OW 1778   1.111   3.638   0.237
  589SOL    HW1 1779   1.051   3.576   0.287
  589SOL    HW2 1780   1.142   3.594   0.152
  590SOL     OW 1781   0.202   2.147   1.498
  590SOL    HW1 1782   0.122   2.207   1.485
  590SOL    HW2 1783   0.192   2.098   1.584
  591SOL     OW 1784   1.632   3.239   0.081
  591SOL    HW1 1785   1.600   3.333   0.071
  591SOL    HW2 1786   1.556   3.176   0.069
  592SOL     OW 1787   0.464   3.605   0.323
  592SOL    HW1 1788   0.497   3.644   0.409
  592SOL    HW2 1789   0.540   3.598   0.258
  593SOL     OW 1790   1.400   1.969   0.426
  593SOL    HW1 1791   1.376   1.932   0.336
  593SOL    HW2 1792   1.499   1.985   0.430
  594SOL     OW 1793   0.249   3.647   1.241
  594SOL    HW1 1794   0.306   3.582   1.291
  594SOL    HW2 1795   0.233   3.614   1.148
  595SOL     OW 1796   0.940   3.560   0.904
  595SOL    HW1 1797   1.020   3.503   0.925
  595SOL    HW2 1798   0.891   3.520   0.827
  596SOL     OW 1799   0.382   2.562   0.480
  596SOL    HW1 1800   0.427   2.472   0.477
  596SOL    HW2 1801   0.288   2.551   0.513
  597SOL     OW 1802   1.547   2.084   1.729
  597SOL    HW1 1803   1.542   2.121   1.821
  597SOL    HW2 1804   1.475   2.015   1.717
  598SOL     OW 1805   0.781   2.126   1.749
  598SOL    HW1 1806   0.848   2.065   1.792
  598SOL    HW2 1807   0.708   2.145   1.814
  599SOL     OW 1808   0.888   3.376   1.195
  599SOL    HW1 1809   0.865   3.351   1.101
  599SOL    HW2 1810   0.949   3.307   1.234
  600SOL     OW 1811   1.351   2.452   1.433
  600SOL    HW1 1812   1.379   2.409   1.518
  600SOL    HW2 1813   1.376   2.548   1.434
  601SOL     OW 1814   0.803   3.264   0.924
  601SOL    HW1 1815   0.893   3.278   0.882
  601SOL    HW2 1816   0.732   3.266   0.853
  602SOL     OW 1817   0.922   2.365   0.899
  602SOL    HW1 1818   0.897   2.356   0.803
  602SOL    HW2 1819   0.970   2.283   0.930
  603SOL     OW 1820   0.539   1.926   0.512
  603SOL    HW1 1821   0.458   1.927   0.570
  603SOL    HW2 1822   0.542   2.009   0.457
  604SOL     OW 1823   1.434   3.050   0.041
  604SOL    HW1 1824   1.466   2.974   0.098
  604SOL    HW2 1825   1.342   3.077   0.071
  605SOL     OW 1826   0.297   1.897   0.171
  605SOL    HW1 1827   0.346   1.981   0.150
  605SOL    HW2 1828   0.359   1.832   0.216
  606SOL     OW 1829   0.935   2.098   0.480
  606SOL    HW1 1830   0.887   2.139   0.402
  606SOL    HW2 1831   1.034   2.096   0.461
  607SOL     OW 1832   1.076   2.545   1.464
  607SOL    HW1 1833   0.996   2.484   1.467
  607SOL    HW2 1834   1.157   2.492   1.440
  608SOL     OW 1835   1.227   3.432   0.793
  608SOL    HW1 1836   1.248   3.506   0.728
  608SOL    HW2 1837   1.295   3.432   0.866
  609SOL     OW 1838   0.459   3.014   0.741
  609SOL    HW1 1839   0.388   2.987   0.806
  609SOL    HW2 1840   0.433   2.986   0.648
  610SOL     OW 1841   1.271   3.659   0.591
  610SOL    HW1 1842   1.315   3.723   0.527
  610SOL    HW2 1843   1.221   3.711   0.661
  611SOL     OW 1844   1.032   2.411   0.016
  611SOL    HW1 1845   0.991   2.493  -0.023
  611SOL    HW2 1846   1.096   2.437   0.089
  612SOL     OW 1847   0.078   2.418   1.386
  612SOL    HW1 1848   0.170   2.417   1.345
  612SOL    HW2 1849   0.072   2.492   1.453
  613SOL     OW 1850   0.561   2.084   1.147
  613SOL    HW1 1851   0.599   2.000   1.184
  613SOL    HW2 1852   0.473   2.103   1.191
  614SOL     OW 1853   0.866   2.316   0.642
  614SOL    HW1 1854   0.834   2.388   0.580
  614SOL    HW2 1855   0.890   2.235   0.589
  615SOL     OW 1856   1.017   1.901   0.753
  615SOL    HW1 1857   0.945   1.906   0.684
  615SOL    HW2 1858   0.993   1.832   0.822
  616SOL     OW 1859   1.429   3.035   0.867
  616SOL    HW1 1860   1.374   2.951   0.860
  616SOL    HW2 1861   1.455   3.064   0.775
  617SOL     OW 1862   1.466   2.452   0.992
  617SOL    HW1 1863   1.436   2.357   0.999
  617SOL    HW2 1864   1.539   2.468   1.058
  618SOL     OW 1865   1.857   2.695   0.377
  618SOL    HW1 1866   1.899   2.631   0.441
  618SOL    HW2 1867   1.819   2.644   0.299
  619SOL     OW 1868   0.488   3.247   0.174
  619SOL    HW1 1869   0.401   3.232   0.221
  619SOL    HW2 1870   0.471   3.273   0.079
  620SOL     OW 1871   1.664   3.142   0.657
  620SOL    HW1 1872   1.763   3.150   0.671
  620SOL    HW2 1873   1.619   3.226   0.688
  621SOL     OW 1874   1.390   2.437   0.078
  621SOL    HW1 1875   1.336   2.416   0.159
  621SOL    HW2 1876   1.481   2.396   0.087
  622SOL     OW 1877   0.527   2.118   0.328
  622SOL    HW1 1878   0.554   2.059   0.253
  622SOL    HW2 1879   0.527   2.213   0.297
  623SOL     OW 1880   1.754   3.085   1.588
  623SOL    HW1 1881   1.845   3.046   1.575
  623SOL    HW2 1882   1.762   3.181   1.612
  624SOL     OW 1883   1.064   3.209   1.340
  624SOL    HW1 1884   0.984   3.186   1.395
  624SOL    HW2 1885   1.147   3.183   1.389
  625SOL     OW 1886   1.592   3.491   1.625
  625SOL    HW1 1887   1.619   3.525   1.535
  625SOL    HW2 1888   1.671   3.453   1.671
  626SOL     OW 1889   1.111   3.057   1.100
  626SOL    HW1 1890   1.071   3.101   1.181
  626SOL    HW2 1891   1.070   3.094   1.017
  627SOL     OW 1892   1.638   2.961   1.079
  627SOL    HW1 1893   1.643   3.042   1.138
  627SOL    HW2 1894   1.552   2.963   1.028
  628SOL     OW 1895   0.915   1.951   1.402
  628SOL    HW1 1896   0.940   1.931   1.307
  628SOL    HW2 1897   0.987   2.007   1.444
  629SOL     OW 1898   0.980   2.978   1.719
  629SOL    HW1 1899   0.881   2.984   1.729
  629SOL    HW2 1900   1.003   2.898   1.663
  630SOL     OW 1901   0.705   2.912   0.368
  630SOL    HW1 1902   0.691   2.919   0.467
  630SOL    HW2 1903   0.789   2.861   0.350
  631SOL     OW 1904   0.410   2.675   1.251
  631SOL    HW1 1905   0.496   2.687   1.301
  631SOL    HW2 1906   0.368   2.588   1.278
  632SOL     OW 1907   1.274   2.248   1.262
  632SOL    HW1 1908   1.295   2.322   1.326
  632SOL    HW2 1909   1.185   2.265   1.219
  633SOL     OW 1910   0.064   3.426   1.331
  633SOL    HW1 1911   0.018   3.508   1.297
  633SOL    HW2 1912   0.162   3.445   1.340
  634SOL     OW 1913   0.367   2.962   0.501
  634SOL    HW1 1914   0.360   3.045   0.445
  634SOL    HW2 1915   0.371   2.882   0.441
  635SOL     OW 1916   0.566   2.399   0.865
  635SOL    HW1 1917   0.578   2.465   0.791
  635SOL    HW2 1918   0.612   2.433   0.948
  636SOL     OW 1919   1.252   3.210   0.388
  636SOL    HW1 1920   1.302   3.287   0.428
  636SOL    HW2 1921   1.157   3.212   0.420
  637SOL     OW 1922   1.272   3.307   1.142
  637SOL    HW1 1923   1.319   3.320   1.229
  637SOL    HW2 1924   1.206   3.233   1.151
  638SOL     OW 1925   1.582   2.501   0.472
  638SOL    HW1 1926   1.551   2.562   0.545
  638SOL    HW2 1927   1.632   2.553   0.403
  639SOL     OW 1928   0.354   3.372   1.329
  639SOL    HW1 1929   0.333   3.328   1.242
  639SOL    HW2 1930   0.451   3.398   1.332
  640SOL     OW 1931   0.402   2.613   1.598
  640SOL    HW1 1932   0.470   2.668   1.551
  640SOL    HW2 1933   0.442   2.525   1.625
  641SOL     OW 1934   1.587   2.641   1.670
  641SOL    HW1 1935   1.495   2.679   1.665
  641SOL    HW2 1936   1.647   2.688   1.605
  642SOL     OW 1937   1.013   1.967   1.770
  642SOL    HW1 1938   1.019   2.052   1.718
  642SOL    HW2 1939   1.045   1.891   1.713
  643SOL     OW 1940   0.504   1.912   1.740
  643SOL    HW1 1941   0.462   1.855   1.670
  643SOL    HW2 1942   0.438   1.981   1.772
  644SOL     OW 1943   0.573   2.732   1.029
  644SOL    HW1 1944   0.617   2.821   1.020
  644SOL    HW2 1945   0.510   2.732   1.106
  645SOL     OW 1946   1.360   2.724   1.045
  645SOL    HW1 1947   1.285   2.724   0.979
  645SOL    HW2 1948   1.397   2.632   1.054
  646SOL     OW 1949   1.209   2.387   0.275
  646SOL    HW1 1950   1.222   2.303   0.329
  646SOL    HW2 1951   1.180   2.461   0.335
  647SOL     OW 1952   0.307   2.075   1.231
  647SOL    HW1 1953   0.284   2.112   1.321
  647SOL    HW2 1954   0.277   1.980   1.225
  648SOL     OW 1955   0.037   3.172   1.282
  648SOL    HW1 1956   0.090   3.123   1.350
  648SOL    HW2 1957   0.059   3.270   1.287
  649SOL     OW 1958   0.732   2.496   1.064
  649SOL    HW1 1959   0.791   2.470   0.988
  649SOL    HW2 1960   0.704   2.592   1.053
  650SOL     OW 1961   1.728   2.797   1.854
  650SOL    HW1 1962   1.682   2.790   1.765
  650SOL    HW2 1963   1.666   2.841   1.920
  651SOL     OW 1964   0.307   1.925   0.618
  651SOL    HW1 1965   0.296   2.019   0.651
  651SOL    HW2 1966   0.302   1.862   0.695
  652SOL     OW 1967   1.622   2.229   0.374
  652SOL    HW1 1968   1.624   2.153   0.438
  652SOL    HW2 1969   1.574   2.306   0.414
  653SOL     OW 1970   1.023   2.628   0.966
  653SOL    HW1 1971   1.038   2.649   1.062
  653SOL    HW2 1972   0.993   2.533   0.957
  654SOL     OW 1973   0.980   3.435   1.700
  654SOL    HW1 1974   0.960   3.479   1.612
  654SOL    HW2 1975   1.019   3.344   1.684
  655SOL     OW 1976   1.859   3.380   1.605
  655SOL    HW1 1977   1.873   3.407   1.510
  655SOL    HW2 1978   1.942   3.402   1.658
  656SOL     OW 1979   0.350   2.760   1.804
  656SOL    HW1 1980   0.426   2.804   1.852
  656SOL    HW2 1981   0.385   2.713   1.722
  657SOL     OW 1982   1.540   2.136   0.125
  657SOL    HW1 1983   1.479   2.061   0.148
  657SOL    HW2 1984   1.562   2.188   0.208
  658SOL     OW 1985   1.303   2.700   0.042
  658SOL    HW1 1986   1.337   2.607   0.057
  658SOL    HW2 1987   1.321   2.727  -0.053
  659SOL     OW 1988   1.068   3.195   0.849
  659SOL    HW1 1989   1.075   3.111   0.794
  659SOL    HW2 1990   1.130   3.264   0.813
  660SOL     OW 1991   0.319   2.672   0.949
  660SOL    HW1 1992   0.412   2.708   0.954
  660SOL    HW2 1993   0.313   2.587   1.001
  661SOL     OW 1994   0.339   2.371   1.006
  661SOL    HW1 1995   0.287   2.288   0.989
  661SOL    HW2 1996   0.416   2.376   0.942
  662SOL     OW 1997   1.138   2.242   1.678
  662SOL    HW1 1998   1.093   2.305   1.742
  662SOL    HW2 1999   1.231   2.273   1.661
  663SOL     OW 2000   1.160   2.069   1.477
  663SOL    HW1 2001   1.160   2.133   1.554
  663SOL    HW2 2002   1.188   2.117   1.394
  664SOL     OW 2003   0.008   3.188   0.200
  664SOL    HW1 2004  -0.085   3.209   0.169
  664SOL    HW2 2005   0.018   3.089   0.213
  665SOL     OW 2006   0.088   3.663   0.927
  665SOL    HW1 2007   0.046   3.577   0.900
  665SOL    HW2 2008   0.182   3.666   0.893
  666SOL     OW 2009   0.504   3.430   0.910
  666SOL    HW1 2010   0.570   3.504   0.919
  666SOL    HW2 2011   0.548   3.351   0.868
  667SOL     OW 2012   1.002   2.658   1.238
  667SOL    HW1 2013   1.043   2.626   1.324
  667SOL    HW2 2014   0.906   2.631   1.235
  668SOL     OW 2015   0.040   2.406   1.114
  668SOL    HW1 2016   0.125   2.373   1.073
  668SOL    HW2 2017   0.053   2.421   1.212
  669SOL     OW 2018   0.189   2.382   1.722
  669SOL    HW1 2019   0.248   2.342   1.652
  669SOL    HW2 2020   0.131   2.453   1.681
  670SOL     OW 2021   1.369   2.812   1.660
  670SOL    HW1 2022   1.408   2.901   1.680
  670SOL    HW2 2023   1.379   2.792   1.563
  671SOL     OW 2024   0.815   2.434   0.325
  671SOL    HW1 2025   0.822   2.345   0.279
  671SOL    HW2 2026   0.721   2.468   0.317
  672SOL     OW 2027   1.657   2.466   1.206
  672SOL    HW1 2028   1.619   2.397   1.268
  672SOL    HW2 2029   1.739   2.430   1.162
  673SOL     OW 2030   0.252   3.426   1.744
  673SOL    HW1 2031   0.222   3.483   1.820
  673SOL    HW2 2032   0.245   3.329   1.770
  674SOL     OW 2033   0.671   2.326   1.269
  674SOL    HW1 2034   0.637   2.237   1.239
  674SOL    HW2 2035   0.697   2.380   1.189
  675SOL     OW 2036   0.930   3.540   1.465
  675SOL    HW1 2037   0.906   3.522   1.370
  675SOL    HW2 2038   0.960   3.634   1.475
  676SOL     OW 2039   0.473   2.362   0.191
  676SOL    HW1 2040   0.534   2.442   0.195
  676SOL    HW2 2041   0.378   2.393   0.198
  677SOL     OW 2042   0.159   2.999   1.466
  677SOL    HW1 2043   0.181   2.938   1.542
  677SOL    HW2 2044   0.169   2.950   1.380
  678SOL     OW 2045   1.347   2.921   1.234
  678SOL    HW1 2046   1.371   2.858   1.160
  678SOL    HW2 2047   1.257   2.961   1.216
  679SOL     OW 2048   1.302   2.717   0.309
  679SOL    HW1 2049   1.216   2.686   0.351
  679SOL    HW2 2050   1.298   2.703   0.210
  680SOL     OW 2051   1.759   3.609   1.154
  680SOL    HW1 2052   1.820   3.639   1.081
  680SOL    HW2 2053   1.721   3.520   1.132
  681SOL     OW 2054   1.252   3.593   1.128
  681SOL    HW1 2055   1.336   3.598   1.074
  681SOL    HW2 2056   1.229   3.497   1.146
  682SOL     OW 2057   0.083   3.120   1.022
  682SOL    HW1 2058   0.078   3.119   1.122
  682SOL    HW2 2059   0.000   3.079   0.984
  683SOL     OW 2060   0.688   3.524   1.716
  683SOL    HW1 2061   0.632   3.605   1.725
  683SOL    HW2 2062   0.740   3.528   1.630
  684SOL     OW 2063   0.903   1.948   0.133
  684SOL    HW1 2064   0.954   1.949   0.047
  684SOL    HW2 2065   0.959   1.906   0.204
  685SOL     OW 2066   1.726   1.997   0.523
  685SOL    HW1 2067   1.799   1.980   0.456
  685SOL    HW2 2068   1.695   1.910   0.561
  686SOL     OW 2069   1.388   3.435   0.477
  686SOL    HW1 2070   1.455   3.447   0.403
  686SOL    HW2 2071   1.348   3.524   0.500
  687SOL     OW 2072   0.130   3.656   1.851
  687SOL    HW1 2073   0.089   3.582   1.904
  687SOL    HW2 2074   0.194   3.707   1.909
  688SOL     OW 2075   1.280   2.789   0.672
  688SOL    HW1 2076   1.340   2.708   0.674
  688SOL    HW2 2077   1.320   2.858   0.612
  689SOL     OW 2078   0.830   3.135   1.422
  689SOL    HW1 2079   0.825   3.168   1.517
  689SOL    HW2 2080   0.744   3.154   1.376
  690SOL     OW 2081   0.672   3.478   0.154
  690SOL    HW1 2082   0.681   3.488   0.055
  690SOL    HW2 2083   0.632   3.389   0.175
  691SOL     OW 2084   1.650   3.582   1.394
  691SOL    HW1 2085   1.703   3.592   1.310
  691SOL    HW2 2086   1.623   3.672   1.428
  692SOL     OW 2087   1.841   2.037   0.963
  692SOL    HW1 2088   1.880   1.952   0.927
  692SOL    HW2 2089   1.743   2.039   0.944
  693SOL     OW 2090   0.263   2.188   0.720
  693SOL    HW1 2091   0.184   2.239   0.686
  693SOL    HW2 2092   0.254   2.173   0.818
  694SOL     OW 2093   1.194   3.474   0.031
  694SOL    HW1 2094   1.200   3.381   0.068
  694SOL    HW2 2095   1.135   3.474  -0.049
  695SOL     OW 2096   0.822   2.864   1.372
  695SOL    HW1 2097   0.862   2.863   1.280
  695SOL    HW2 2098   0.832   2.956   1.412
  696SOL     OW 2099   0.916   2.772   0.291
  696SOL    HW1 2100   0.979   2.810   0.223
  696SOL    HW2 2101   0.956   2.689   0.330
  697SOL     OW 2102   1.504   3.469   0.044
  697SOL    HW1 2103   1.412   3.506   0.051
  697SOL    HW2 2104   1.542   3.489  -0.046
  698SOL     OW 2105   0.372   3.150   1.490
  698SOL    HW1 2106   0.359   3.243   1.456
  698SOL    HW2 2107   0.288   3.098   1.477
  699SOL     OW 2108   1.614   3.154   1.289
  699SOL    HW1 2109   1.674   3.157   1.369
  699SOL    HW2 2110   1.539   3.218   1.302
  700SOL     OW 2111   1.039   2.960   0.696
  700SOL    HW1 2112   0.969   2.913   0.750
  700SOL    HW2 2113   1.098   2.892   0.653
  701SOL     OW 2114   1.014   2.098   0.971
  701SOL    HW1 2115   1.006   2.062   0.878
  701SOL    HW2 2116   1.012   2.022   1.036
  702SOL     OW 2117   0.590   3.349   0.491
  702SOL    HW1 2118   0.632   3.291   0.421
  702SOL    HW2 2119   0.546   3.428   0.447
  703SOL     OW 2120   1.709   2.247   1.381
  703SOL    HW1 2121   1.782   2.316   1.385
  703SOL    HW2 2122   1.737   2.172   1.322
  704SOL     OW 2123   0.255   3.210   0.290
  704SOL    HW1 2124   0.159   3.211   0.263
  704SOL    HW2 2125   0.267   3.263   0.374
  705SOL     OW 2126   0.105   2.875   1.726
  705SOL    HW1 2127   0.028   2.842   1.780
  705SOL    HW2 2128   0.190   2.845   1.768
  706SOL     OW 2129   0.672   2.065   1.489
  706SOL    HW1 2130   0.762   2.049   1.449
  706SOL    HW2 2131   0.680   2.070   1.588
  707SOL     OW 2132   0.075   2.207   0.033
  707SOL    HW1 2133  -0.017   2.179   0.004
  707SOL    HW2 2134   0.106   2.284  -0.023
  708SOL     OW 2135   1.440   2.718   1.398
  708SOL    HW1 2136   1.383   2.770   1.335
  708SOL    HW2 2137   1.536   2.730   1.374
  709SOL     OW 2138   0.072   2.028   0.318
  709SOL    HW1 2139   0.055   2.111   0.264
  709SOL    HW2 2140   0.162   1.991   0.296
  710SOL     OW 2141   1.183   3.197   0.119
  710SOL    HW1 2142   1.084   3.186   0.121
  710SOL    HW2 2143   1.217   3.212   0.212
  711SOL     OW 2144   0.613   2.704   1.431
  711SOL    HW1 2145   0.669   2.785   1.414
  711SOL    HW2 2146   0.672   2.624   1.434
  712SOL     OW 2147   1.493   3.629   0.959
  712SOL    HW1 2148   1.526   3.693   0.890
  712SOL    HW2 2149   1.559   3.623   1.034
  713SOL     OW 2150   0.716   2.427   1.708
  713SOL    HW1 2151   0.735   2.492   1.782
  713SOL    HW2 2152   0.776   2.347   1.717
  714SOL     OW 2153   1.450   3.082   1.633
  714SOL    HW1 2154   1.441   3.072   1.732
  714SOL    HW2 2155   1.546   3.075   1.607
  715SOL     OW 2156   0.390   3.603   1.560
  715SOL    HW1 2157   0.299   3.644   1.558
  715SOL    HW2 2158   0.383   3.509   1.592
  716SOL     OW 2159   1.674   2.745   1.254
  716SOL    HW1 2160   1.647   2.656   1.217
  716SOL    HW2 2161   1.675   2.813   1.181
  717SOL     OW 2162   1.225   2.187   0.449
  717SOL    HW1 2163   1.290   2.113   0.438
  717SOL    HW2 2164   1.245   2.237   0.533
  718SOL     OW 2165   0.594   2.607   0.652
  718SOL    HW1 2166   0.644   2.692   0.633
  718SOL    HW2 2167   0.506   2.609   0.604
  719SOL     OW 2168   1.777   2.204   1.642
  719SOL    HW1 2169   1.760   2.235   1.548
  719SOL    HW2 2170   1.693   2.167   1.680
  720SOL     OW 2171   1.730   2.796   1.517
  720SOL    HW1 2172   1.768   2.887   1.532
  720SOL    HW2 2173   1.722   2.779   1.418
  721SOL     OW 2174   0.859   3.236   0.016
  721SOL    HW1 2175   0.813   3.251   0.104
  721SOL    HW2 2176   0.903   3.321  -0.014
  722SOL     OW 2177   0.661   3.652   0.953
  722SOL    HW1 2178   0.615   3.740   0.940
  722SOL    HW2 2179   0.760   3.664   0.946
  723SOL     OW 2180   0.859   2.818   0.861
  723SOL    HW1 2181   0.913   2.749   0.909
  723SOL    HW2 2182   0.827   2.887   0.927
  724SOL     OW 2183   1.083   2.846   0.087
  724SOL    HW1 2184   1.060   2.899   0.005
  724SOL    HW2 2185   1.164   2.790   0.068
  725SOL     OW 2186   1.861   3.431   0.851
  725SOL    HW1 2187   1.790   3.419   0.781
  725SOL    HW2 2188   1.862   3.352   0.911
  726SOL     OW 2189   0.221   3.176   1.844
  726SOL    HW1 2190   0.156   3.103   1.823
  726SOL    HW2 2191   0.225   3.190   1.942
  727SOL     OW 2192   0.079   3.102   0.653
  727SOL    HW1 2193   0.078   3.055   0.741
  727SOL    HW2 2194   0.161   3.074   0.602
  728SOL     OW 2195   0.672   3.253   1.624
  728SOL    HW1 2196   0.594   3.203   1.662
  728SOL    HW2 2197   0.669   3.348   1.655
  729SOL     OW 2198   1.824   2.054   1.227
  729SOL    HW1 2199   1.820   1.964   1.271
  729SOL    HW2 2200   1.827   2.043   1.128
  730SOL     OW 2201   0.428   2.286   0.520
  730SOL    HW1 2202   0.458   2.214   0.458
  730SOL    HW2 2203   0.389   2.246   0.603
  731SOL     OW 2204   1.705   3.349   1.104
  731SOL    HW1 2205   1.612   3.324   1.077
  731SOL    HW2 2206   1.731   3.299   1.186
  732SOL     OW 2207   0.317   2.409   1.280
  732SOL    HW1 2208   0.355   2.350   1.352
  732SOL    HW2 2209   0.357   2.383   1.192
  733SOL     OW 2210   0.812   3.448   0.687
  733SOL    HW1 2211   0.844   3.458   0.593
  733SOL    HW2 2212   0.733   3.386   0.689
  734SOL     OW 2213   1.424   2.076   1.112
  734SOL    HW1 2214   1.476   2.011   1.167
  734SOL    HW2 2215   1.375   2.139   1.173
  735SOL     OW 2216   1.001   1.896   1.154
  735SOL    HW1 2217   0.938   1.824   1.123
  735SOL    HW2 2218   1.094   1.860   1.154
  736SOL     OW 2219   0.770   3.192   0.301
  736SOL    HW1 2220   0.724   3.105   0.318
  736SOL    HW2 2221   0.861   3.189   0.342
  737SOL     OW 2222   0.618   3.429   1.284
  737SOL    HW1 2223   0.613   3.511   1.341
  737SOL    HW2 2224   0.707   3.426   1.239
  738SOL     OW 2225   1.352   1.914   0.168
  738SOL    HW1 2226   1.387   1.873   0.084
  738SOL    HW2 2227   1.262   1.876   0.188
  739SOL     OW 2228   1.300   2.315   0.691
  739SOL    HW1 2229   1.241   2.395   0.695
  739SOL    HW2 2230   1.315   2.280   0.784
  740SOL     OW 2231   1.593   2.083   0.882
  740SOL    HW1 2232   1.509   2.082   0.936
  740SOL    HW2 2233   1.595   2.166   0.826
  741SOL     OW 2234   0.039   2.939   0.300
  741SOL    HW1 2235   0.138   2.928   0.291
  741SOL    HW2 2236  -0.001   2.853   0.332
  742SOL     OW 2237   0.875   3.508   0.337
  742SOL    HW1 2238   0.798   3.473   0.283
  742SOL    HW2 2239   0.843   3.579   0.399
  743SOL     OW 2240   0.230   2.490   1.975
  743SOL    HW1 2241   0.137   2.488   2.012
  743SOL    HW2 2242   0.231   2.451   1.883
  744SOL     OW 2243   0.225   2.137   2.858
  744SOL    HW1 2244   0.260   2.120   2.950
  744SOL    HW2 2245   0.137   2.092   2.846
  745SOL     OW 2246   0.019   2.230   2.509
  745SOL    HW1 2247  -0.063   2.273   2.548
  745SOL    HW2 2248  -0.009   2.157   2.446
  746SOL     OW 2249   0.569   3.137   3.027
  746SOL    HW1 2250   0.476   3.130   2.990
  746SOL    HW2 2251   0.580   3.226   3.071
  747SOL     OW 2252   1.555   3.373   2.565
  747SOL    HW1 2253   1.498   3.357   2.646
  747SOL    HW2 2254   1.496   3.383   2.485
  748SOL     OW 2255   1.135   2.565   2.579
  748SOL    HW1 2256   1.192   2.643   2.554
  748SOL    HW2 2257   1.075   2.591   2.655
  749SOL     OW 2258   1.755   2.469   2.093
  749SOL    HW1 2259   1.743   2.456   1.994
  749SOL    HW2 2260   1.725   2.388   2.142
  750SOL     OW 2261   0.768   3.006   2.885
  750SOL    HW1 2262   0.690   3.023   2.945
  750SOL    HW2 2263   0.802   3.093   2.849
  751SOL     OW 2264   0.850   2.660   3.685
  751SOL    HW1 2265   0.846   2.736   3.750
  751SOL    HW2 2266   0.872   2.696   3.594
  752SOL     OW 2267   0.685   2.874   2.527
  752SOL    HW1 2268   0.754   2.858   2.597
  752SOL    HW2 2269   0.612   2.931   2.565
  753SOL     OW 2270   0.686   3.023   3.665
  753SOL    HW1 2271   0.746   3.102   3.679
  753SOL    HW2 2272   0.600   3.054   3.624
  754SOL     OW 2273   0.335   3.297   2.923
  754SOL    HW1 2274   0.257   3.266   2.870
  754SOL    HW2 2275   0.393   3.355   2.866
  755SOL     OW 2276   1.460   3.367   3.201
  755SOL    HW1 2277   1.484   3.461   3.227
  755SOL    HW2 2278   1.444   3.313   3.283
  756SOL     OW 2279   0.438   2.254   3.361
  756SOL    HW1 2280   0.520   2.198   3.370
  756SOL    HW2 2281   0.357   2.196   3.365
  757SOL     OW 2282   1.603   2.309   2.599
  757SOL    HW1 2283   1.529   2.355   2.549
  757SOL    HW2 2284   1.654   2.377   2.652
  758SOL     OW 2285   0.231   3.575   2.345
  758SOL    HW1 2286   0.265   3.652   2.399
  758SOL    HW2 2287   0.275   3.575   2.255
  759SOL     OW 2288   1.127   3.203   3.552
  759SOL    HW1 2289   1.174   3.203   3.640
  759SOL    HW2 2290   1.079   3.116   3.541
  760SOL     OW 2291   0.230   3.296   2.400
  760SOL    HW1 2292   0.204   3.392   2.400
  760SOL    HW2 2293   0.159   3.242   2.445
  761SOL     OW 2294   0.240   2.953   2.748
  761SOL    HW1 2295   0.254   2.869   2.800
  761SOL    HW2 2296   0.185   3.017   2.803
  762SOL     OW 2297   0.620   3.648   3.301
  762SOL    HW1 2298   0.528   3.631   3.336
  762SOL    HW2 2299   0.648   3.740   3.327
  763SOL     OW 2300   0.606   2.826   1.985
  763SOL    HW1 2301   0.613   2.910   1.931
  763SOL    HW2 2302   0.652   2.839   2.073
  764SOL     OW 2303   1.594   1.976   3.342
  764SOL    HW1 2304   1.576   2.043   3.270
  764SOL    HW2 2305   1.591   2.022   3.431
  765SOL     OW 2306   0.122   2.505   2.425
  765SOL    HW1 2307   0.077   2.417   2.442
  765SOL    HW2 2308   0.121   2.559   2.509
  766SOL     OW 2309   1.842   3.629   2.221
  766SOL    HW1 2310   1.896   3.600   2.301
  766SOL    HW2 2311   1.872   3.719   2.192
  767SOL     OW 2312   0.027   3.458   1.979
  767SOL    HW1 2313   0.008   3.362   2.000
  767SOL    HW2 2314  -0.006   3.516   2.054
  768SOL     OW 2315   1.689   2.784   2.474
  768SOL    HW1 2316   1.784   2.755   2.482
  768SOL    HW2 2317   1.681   2.849   2.399
  769SOL     OW 2318   1.641   2.970   2.294
  769SOL    HW1 2319   1.727   2.972   2.242
  769SOL    HW2 2320   1.655   3.017   2.382
  770SOL     OW 2321   0.113   2.599   3.459
  770SOL    HW1 2322   0.201   2.586   3.504
  770SOL    HW2 2323   0.100   2.696   3.437
  771SOL     OW 2324   0.613   3.227   2.588
  771SOL    HW1 2325   0.564   3.140   2.597
  771SOL    HW2 2326   0.590   3.270   2.501
  772SOL     OW 2327   1.293   3.090   3.285
  772SOL    HW1 2328   1.330   3.017   3.227
  772SOL    HW2 2329   1.345   3.095   3.370
  773SOL     OW 2330   0.809   1.866   2.364
  773SOL    HW1 2331   0.849   1.957   2.355
  773SOL    HW2 2332   0.709   1.874   2.370
  774SOL     OW 2333   0.197   2.838   3.126
  774SOL    HW1 2334   0.286   2.793   3.112
  774SOL    HW2 2335   0.124   2.773   3.107
  775SOL     OW 2336   1.525   2.861   2.052
  775SOL    HW1 2337   1.462   2.785   2.065
  775SOL    HW2 2338   1.573   2.879   2.138
  776SOL     OW 2339   1.187   3.654   3.478
  776SOL    HW1 2340   1.211   3.714   3.402
  776SOL    HW2 2341   1.194   3.559   3.448
  777SOL     OW 2342   0.317   2.113   3.663
  777SOL    HW1 2343   0.388   2.184   3.669
  777SOL    HW2 2344   0.229   2.152   3.691
  778SOL     OW 2345   1.466   3.279   2.815
  778SOL    HW1 2346   1.407   3.285   2.895
  778SOL    HW2 2347   1.451   3.191   2.769
  779SOL     OW 2348   1.667   3.576   2.434
  779SOL    HW1 2349   1.626   3.553   2.346
  779SOL    HW2 2350   1.649   3.502   2.499
  780SOL     OW 2351   0.598   2.591   2.132
  780SOL    HW1 2352   0.622   2.660   2.064
  780SOL    HW2 2353   0.520   2.624   2.186
  781SOL     OW 2354   1.281   2.207   2.806
  781SOL    HW1 2355   1.195   2.157   2.793
  781SOL    HW2 2356   1.343   2.153   2.862
  782SOL     OW 2357   1.576   3.524   2.169
  782SOL    HW1 2358   1.665   3.570   2.172
  782SOL    HW2 2359   1.555   3.500   2.074
  783SOL     OW 2360   0.807   2.467   3.327
  783SOL    HW1 2361   0.760   2.464   3.416
  783SOL    HW2 2362   0.756   2.412   3.261
  784SOL     OW 2363   1.394   2.331   3.536
  784SOL    HW1 2364   1.374   2.374   3.624
  784SOL    HW2 2365   1.472   2.269   3.545
  785SOL     OW 2366   0.973   2.752   3.434
  785SOL    HW1 2367   1.019   2.668   3.405
  785SOL    HW2 2368   0.917   2.786   3.359
  786SOL     OW 2369   0.991   2.272   3.104
  786SOL    HW1 2370   0.914   2.306   3.158
  786SOL    HW2 2371   0.957   2.221   3.025
  787SOL     OW 2372   1.041   2.563   2.291
  787SOL    HW1 2373   1.067   2.559   2.387
  787SOL    HW2 2374   0.956   2.512   2.277
  788SOL     OW 2375   0.076   2.673   2.651
  788SOL    HW1 2376   0.175   2.661   2.660
  788SOL    HW2 2377   0.052   2.768   2.672
  789SOL     OW 2378   0.130   3.683   3.433
  789SOL    HW1 2379   0.120   3.668   3.532
  789SOL    HW2 2380   0.044   3.719   3.397
  790SOL     OW 2381   0.865   2.210   2.057
  790SOL    HW1 2382   0.924   2.273   2.008
  790SOL    HW2 2383   0.884   2.116   2.028
  791SOL     OW 2384   1.719   2.447   3.693
  791SOL    HW1 2385   1.693   2.536   3.657
  791SOL    HW2 2386   1.717   2.379   3.620
  792SOL     OW 2387   1.362   3.006   2.407
  792SOL    HW1 2388   1.445   2.977   2.359
  792SOL    HW2 2389   1.313   3.073   2.351
  793SOL     OW 2390   0.550   2.058   2.747
  793SOL    HW1 2391   0.545   2.053   2.847
  793SOL    HW2 2392   0.552   2.154   2.718
  794SOL     OW 2393   1.008   3.318   2.339
  794SOL    HW1 2394   0.962   3.390   2.287
  794SOL    HW2 2395   1.004   3.338   2.437
  795SOL     OW 2396   0.351   3.663   2.715
  795SOL    HW1 2397   0.401   3.577   2.721
  795SOL    HW2 2398   0.416   3.740   2.712
  796SOL     OW 2399   1.795   2.928   2.735
  796SOL    HW1 2400   1.733   2.913   2.659
  796SOL    HW2 2401   1.743   2.939   2.820
  797SOL     OW 2402   1.227   3.412   3.368
  797SOL    HW1 2403   1.233   3.335   3.432
  797SOL    HW2 2404   1.175   3.386   3.288
  798SOL     OW 2405   0.321   2.805   2.104
  798SOL    HW1 2406   0.403   2.844   2.062
  798SOL    HW2 2407   0.294   2.723   2.055
  799SOL     OW 2408   1.458   2.597   2.590
  799SOL    HW1 2409   1.453   2.532   2.665
  799SOL    HW2 2410   1.538   2.656   2.603
  800SOL     OW 2411   0.461   3.128   3.589
  800SOL    HW1 2412   0.411   3.129   3.503
  800SOL    HW2 2413   0.398   3.110   3.665
  801SOL     OW 2414   1.111   3.638   2.099
  801SOL    HW1 2415   1.051   3.576   2.149
  801SOL    HW2 2416   1.142   3.594   2.014
  802SOL     OW 2417   0.202   2.147   3.360
  802SOL    HW1 2418   0.122   2.207   3.347
  802SOL    HW2 2419   0.192   2.098   3.446
  803SOL     OW 2420   1.632   3.239   1.943
  803SOL    HW1 2421   1.600   3.333   1.933
  803SOL    HW2 2422   1.556   3.176   1.931
  804SOL     OW 2423   0.464   3.605   2.185
  804SOL    HW1 2424   0.497   3.644   2.271
  804SOL    HW2 2425   0.540   3.598   2.120
  805SOL     OW 2426   1.400   1.969   2.288
  805SOL    HW1 2427   1.376   1.932   2.198
  805SOL    HW2 2428   1.499   1.985   2.292
  806SOL     OW 2429   0.249   3.647   3.103
  806SOL    HW1 2430   0.306   3.582   3.153
  806SOL    HW2 2431   0.233   3.614   3.010
  807SOL     OW 2432   0.940   3.560   2.766
  807SOL    HW1 2433   1.020   3.503   2.787
  807SOL    HW2 2434   0.891   3.520   2.689
  808SOL     OW 2435   0.382   2.562   2.342
  808SOL    HW1 2436   0.427   2.472   2.339
  808SOL    HW2 2437   0.288   2.551   2.375
  809SOL     OW 2438   1.547   2.084   3.591
  809SOL    HW1 2439   1.542   2.121   3.683
  809SOL    HW2 2440   1.475   2.015   3.579
  810SOL     OW 2441   0.614   1.984   1.979
  810SOL    HW1 2442   0.712   1.962   1.986
  810SOL    HW2 2443   0.583   1.967   1.886
  811SOL     OW 2444   0.781   2.126   3.611
  811SOL    HW1 2445   0.848   2.065   3.654
  811SOL    HW2 2446   0.708   2.145   3.676
  812SOL     OW 2447   0.888   3.376   3.057
  812SOL    HW1 2448   0.865   3.351   2.963
  812SOL    HW2 2449   0.949   3.307   3.096
  813SOL     OW 2450   1.351   2.452   3.295
  813SOL    HW1 2451   1.379   2.409   3.380
  813SOL    HW2 2452   1.376   2.548   3.296
  814SOL     OW 2453   0.803   3.264   2.786
  814SOL    HW1 2454   0.893   3.278   2.744
  814SOL    HW2 2455   0.732   3.266   2.715
  815SOL     OW 2456   0.922   2.365   2.761
  815SOL    HW1 2457   0.897   2.356   2.665
  815SOL    HW2 2458   0.970   2.283   2.792
  816SOL     OW 2459   0.539   1.926   2.374
  816SOL    HW1 2460   0.458   1.927   2.432
  816SOL    HW2 2461   0.542   2.009   2.319
  817SOL     OW 2462   1.434   3.050   1.903
  817SOL    HW1 2463   1.466   2.974   1.960
  817SOL    HW2 2464   1.342   3.077   1.933
  818SOL     OW 2465   0.297   1.897   2.033
  818SOL    HW1 2466   0.346   1.981   2.012
  818SOL    HW2 2467   0.359   1.832   2.078
  819SOL     OW 2468   0.935   2.098   2.342
  819SOL    HW1 2469   0.887   2.139   2.264
  819SOL    HW2 2470   1.034   2.096   2.323
  820SOL     OW 2471   1.076   2.545   3.326
  820SOL    HW1 2472   0.996   2.484   3.329
  820SOL    HW2 2473   1.157   2.492   3.302
  821SOL     OW 2474   1.227   3.432   2.655
  821SOL    HW1 2475   1.248   3.506   2.590
  821SOL    HW2 2476   1.295   3.432   2.728
  822SOL     OW 2477   0.459   3.014   2.603
  822SOL    HW1 2478   0.388   2.987   2.668
  822SOL    HW2 2479   0.433   2.986   2.510
  823SOL     OW 2480   1.271   3.659   2.453
  823SOL    HW1 2481   1.315   3.723   2.389
  823SOL    HW2 2482   1.221   3.711   2.523
  824SOL     OW 2483   1.032   2.411   1.878
  824SOL    HW1 2484   0.991   2.493   1.839
  824SOL    HW2 2485   1.096   2.437   1.951
  825SOL     OW 2486   0.078   2.418   3.248
  825SOL    HW1 2487   0.170   2.417   3.207
  825SOL    HW2 2488   0.072   2.492   3.315
  826SOL     OW 2489   0.561   2.084   3.009
  826SOL    HW1 2490   0.599   2.000   3.046
  826SOL    HW2 2491   0.473   2.103   3.053
  827SOL     OW 2492   0.866   2.316   2.504
  827SOL    HW1 2493   0.834   2.388   2.442
  827SOL    HW2 2494   0.890   2.235   2.451
  828SOL     OW 2495   1.017   1.901   2.615
  828SOL    HW1 2496   0.945   1.906   2.546
  828SOL    HW2 2497   0.993   1.832   2.684
  829SOL     OW 2498   1.429   3.035   2.729
  829SOL    HW1 2499   1.374   2.951   2.722
  829SOL    HW2 2500   1.455   3.064   2.637
  830SOL     OW 2501   1.466   2.452   2.854
  830SOL    HW1 2502   1.436   2.357   2.861
  830SOL    HW2 2503   1.539   2.468   2.920
  831SOL     OW 2504   1.857   2.695   2.239
  831SOL    HW1 2505   1.899   2.631   2.303
  831SOL    HW2 2506   1.819   2.644   2.161
  832SOL     OW 2507   0.488   3.247   2.036
  832SOL    HW1 2508   0.401   3.232   2.083
  832SOL    HW2 2509   0.471   3.273   1.941
  833SOL     OW 2510   1.664   3.142   2.519
  833SOL    HW1 2511   1.763   3.150   2.533
  833SOL    HW2 2512   1.619   3.226   2.550
  834SOL     OW 2513   1.390   2.437   1.940
  834SOL    HW1 2514   1.336   2.416   2.021
  834SOL    HW2 2515   1.481   2.396   1.949
  835SOL     OW 2516   0.527   2.118   2.190
  835SOL    HW1 2517   0.554   2.059   2.115
  835SOL    HW2 2518   0.527   2.213   2.159
  836SOL     OW 2519   1.754   3.085   3.450
  836SOL    HW1 2520   1.845   3.046   3.437
  836SOL    HW2 2521   1.762   3.181   3.474
  837SOL     OW 2522   1.064   3.209   3.202
  837SOL    HW1 2523   0.984   3.186   3.257
  837SOL    HW2 2524   1.147   3.183   3.251
  838SOL     OW 2525   1.592   3.491   3.487
  838SOL    HW1 2526   1.619   3.525   3.397
  838SOL    HW2 2527   1.671   3.453   3.533
  839SOL     OW 2528   1.111   3.057   2.962
  839SOL    HW1 2529   1.071   3.101   3.043
  839SOL    HW2 2530   1.070   3.094   2.879
  840SOL     OW 2531   1.638   2.961   2.941
  840SOL    HW1 2532   1.643   3.042   3.000
  840SOL    HW2 2533   1.552   2.963   2.890
  841SOL     OW 2534   0.915   1.951   3.264
  841SOL    HW1 2535   0.940   1.931   3.169
  841SOL    HW2 2536   0.987   2.007   3.306
  842SOL     OW 2537   0.980   2.978   3.581
  842SOL    HW1 2538   0.881   2.984   3.591
  842SOL    HW2 2539   1.003   2.898   3.525
  843SOL     OW 2540   0.705   2.912   2.230
  843SOL    HW1 2541   0.691   2.919   2.329
  843SOL    HW2 2542   0.789   2.861   2.212
  844SOL     OW 2543   0.410   2.675   3.113
  844SOL    HW1 2544   0.496   2.687   3.163
  844SOL    HW2 2545   0.368   2.588   3.140
  845SOL     OW 2546   1.274   2.248   3.124
  845SOL    HW1 2547   1.295   2.322   3.188
  845SOL    HW2 2548   1.185   2.265   3.081
  846SOL     OW 2549   0.064   3.426   3.193
  846SOL    HW1 2550   0.018   3.508   3.159
  846SOL    HW2 2551   0.162   3.445   3.202
  847SOL     OW 2552   0.367   2.962   2.363
  847SOL    HW1 2553   0.360   3.045   2.307
  847SOL    HW2 2554   0.371   2.882   2.303
  848SOL     OW 2555   0.566   2.399   2.727
  848SOL    HW1 2556   0.578   2.465   2.653
  848SOL    HW2 2557   0.612   2.433   2.810
  849SOL     OW 2558   1.252   3.210   2.250
  849SOL    HW1 2559   1.302   3.287   2.290
  849SOL    HW2 2560   1.157   3.212   2.282
  850SOL     OW 2561   1.272   3.307   3.004
  850SOL    HW1 2562   1.319   3.320   3.091
  850SOL    HW2 2563   1.206   3.233   3.013
  851SOL     OW 2564   1.582   2.501   2.334
  851SOL    HW1 2565   1.551   2.562   2.407
  851SOL    HW2 2566   1.632   2.553   2.265
  852SOL     OW 2567   0.354   3.372   3.191
  852SOL    HW1 2568   0.333   3.328   3.104
  852SOL    HW2 2569   0.451   3.398   3.194
  853SOL     OW 2570   0.402   2.613   3.460
  853SOL    HW1 2571   0.470   2.668   3.413
  853SOL    HW2 2572   0.442   2.525   3.487
  854SOL     OW 2573   1.587   2.641   3.532
  854SOL    HW1 2574   1.495   2.679   3.527
  854SOL    HW2 2575   1.647   2.688   3.467
  855SOL     OW 2576   1.013   1.967   3.632
  855SOL    HW1 2577   1.019   2.052   3.580
  855SOL    HW2 2578   1.045   1.891   3.575
  856SOL     OW 2579   0.504   1.912   3.602
  856SOL    HW1 2580   0.462   1.855   3.532
  856SOL    HW2 2581   0.438   1.981   3.634
  857SOL     OW 2582   0.573   2.732   2.891
  857SOL    HW1 2583   0.617   2.821   2.882
  857SOL    HW2 2584   0.510   2.732   2.968
  858SOL     OW 2585   1.360   2.724   2.907
  858SOL    HW1 2586   1.285   2.724   2.841
  858SOL    HW2 2587   1.397   2.632   2.916
  859SOL     OW 2588   1.209   2.387   2.137
  859SOL    HW1 2589   1.222   2.303   2.191
  859SOL    HW2 2590   1.180   2.461   2.197
  860SOL     OW 2591   0.307   2.075   3.093
  860SOL    HW1 2592   0.284   2.112   3.183
  860SOL    HW2 2593   0.277   1.980   3.087
  861SOL     OW 2594   0.037   3.172   3.144
  861SOL    HW1 2595   0.090   3.123   3.212
  861SOL    HW2 2596   0.059   3.270   3.149
  862SOL     OW 2597   0.732   2.496   2.926
  862SOL    HW1 2598   0.791   2.470   2.850
  862SOL    HW2 2599   0.704   2.592   2.915
  863SOL     OW 2600   1.728   2.797   3.716
  863SOL    HW1 2601   1.682   2.790   3.627
  863SOL    HW2 2602   1.666   2.841   3.782
  864SOL     OW 2603   0.307   1.925   2.480
  864SOL    HW1 2604   0.296   2.019   2.513
  864SOL    HW2 2605   0.302   1.862   2.557
  865SOL     OW 2606   1.622   2.229   2.236
  865SOL    HW1 2607   1.624   2.153   2.300
  865SOL    HW2 2608   1.574   2.306   2.276
  866SOL     OW 2609   1.023   2.628   2.828
  866SOL    HW1 2610   1.038   2.649   2.924
  866SOL    HW2 2611   0.993   2.533   2.819
  867SOL     OW 2612   0.980   3.435   3.562
  867SOL    HW1 2613   0.960   3.479   3.474
  867SOL    HW2 2614   1.019   3.344   3.546
  868SOL     OW 2615   1.859   3.380   3.467
  868SOL    HW1 2616   1.873   3.407   3.372
  868SOL    HW2 2617   1.942   3.402   3.520
  869SOL     OW 2618   0.350   2.760   3.666
  869SOL    HW1 2619   0.426   2.804   3.714
  869SOL    HW2 2620   0.385   2.713   3.584
  870SOL     OW 2621   1.540   2.136   1.987
  870SOL    HW1 2622   1.479   2.061   2.010
  870SOL    HW2 2623   1.562   2.188   2.070
  871SOL     OW 2624   1.303   2.700   1.904
  871SOL    HW1 2625   1.337   2.607   1.919
  871SOL    HW2 2626   1.321   2.727   1.809
  872SOL     OW 2627   1.068   3.195   2.711
  872SOL    HW1 2628   1.075   3.111   2.656
  872SOL    HW2 2629   1.130   3.264   2.675
  873SOL     OW 2630   0.319   2.672   2.811
  873SOL    HW1 2631   0.412   2.708   2.816
  873SOL    HW2 2632   0.313   2.587   2.863
  874SOL     OW 2633   0.339   2.371   2.868
  874SOL    HW1 2634   0.287   2.288   2.851
  874SOL    HW2 2635   0.416   2.376   2.804
  875SOL     OW 2636   1.138   2.242   3.540
  875SOL    HW1 2637   1.093   2.305   3.604
  875SOL    HW2 2638   1.231   2.273   3.523
  876SOL     OW 2639   1.160   2.069   3.339
  876SOL    HW1 2640   1.160   2.133   3.416
  876SOL    HW2 2641   1.188   2.117   3.256
  877SOL     OW 2642   0.008   3.188   2.062
  877SOL    HW1 2643  -0.085   3.209   2.031
  877SOL    HW2 2644   0.018   3.089   2.075
  878SOL     OW 2645   0.088   3.663   2.789
  878SOL    HW1 2646   0.046   3.577   2.762
  878SOL    HW2 2647   0.182   3.666   2.755
  879SOL     OW 2648   0.504   3.430   2.772
  879SOL    HW1 2649   0.570   3.504   2.781
  879SOL    HW2 2650   0.548   3.351   2.730
  880SOL     OW 2651   1.002   2.658   3.100
  880SOL    HW1 2652   1.043   2.626   3.186
  880SOL    HW2 2653   0.906   2.631   3.097
  881SOL     OW 2654   0.040   2.406   2.976
  881SOL    HW1 2655   0.125   2.373   2.935
  881SOL    HW2 2656   0.053   2.421   3.074
  882SOL     OW 2657   0.189   2.382   3.584
  882SOL    HW1 2658   0.248   2.342   3.514
  882SOL    HW2 2659   0.131   2.453   3.543
  883SOL     OW 2660   1.369   2.812   3.522
  883SOL    HW1 2661   1.408   2.901   3.542
  883SOL    HW2 2662   1.379   2.792   3.425
  884SOL     OW 2663   0.815   2.434   2.187
  884SOL    HW1 2664   0.822   2.345   2.141
  884SOL    HW2 2665   0.721   2.468   2.179
  885SOL     OW 2666   1.657   2.466   3.068
  885SOL    HW1 2667   1.619   2.397   3.130
  885SOL    HW2 2668   1.739   2.430   3.024
  886SOL     OW 2669   0.252   3.426   3.606
  886SOL    HW1 2670   0.222   3.483   3.682
  886SOL    HW2 2671   0.245   3.329   3.632
  887SOL     OW 2672   0.671   2.326   3.131
  887SOL    HW1 2673   0.637   2.237   3.101
  887SOL    HW2 2674   0.697   2.380   3.051
  888SOL     OW 2675   0.930   3.540   3.327
  888SOL    HW1 2676   0.906   3.522   3.232
  888SOL    HW2 2677   0.960   3.634   3.337
  889SOL     OW 2678   0.473   2.362   2.053
  889SOL    HW1 2679   0.534   2.442   2.057
  889SOL    HW2 2680   0.378   2.393   2.060
  890SOL     OW 2681   0.159   2.999   3.328
  890SOL    HW1 2682   0.181   2.938   3.404
  890SOL    HW2 2683   0.169   2.950   3.242
  891SOL     OW 2684   1.347   2.921   3.096
  891SOL    HW1 2685   1.371   2.858   3.022
  891SOL    HW2 2686   1.257   2.961   3.078
  892SOL     OW 2687   1.302   2.717   2.171
  892SOL    HW1 2688   1.216   2.686   2.213
  892SOL    HW2 2689   1.298   2.703   2.072
  893SOL     OW 2690   1.759   3.609   3.016
  893SOL    HW1 2691   1.820   3.639   2.943
  893SOL    HW2 2692   1.721   3.520   2.994
  894SOL     OW 2693   1.252   3.593   2.990
  894SOL    HW1 2694   1.336   3.598   2.936
  894SOL    HW2 2695   1.229   3.497   3.008
  895SOL     OW 2696   0.083   3.120   2.884
  895SOL    HW1 2697   0.078   3.119   2.984
  895SOL    HW2 2698   0.000   3.079   2.846
  896SOL     OW 2699   0.688   3.524   3.578
  896SOL    HW1 2700   0.632   3.605   3.587
  896SOL    HW2 2701   0.740   3.528   3.492
  897SOL     OW 2702   1.726   1.997   2.385
  897SOL    HW1 2703   1.799   1.980   2.318
  897SOL    HW2 2704   1.695   1.910   2.423
  898SOL     OW 2705   1.388   3.435   2.339
  898SOL    HW1 2706   1.455   3.447   2.265
  898SOL    HW2 2707   1.348   3.524   2.362
  899SOL     OW 2708   0.130   3.656   3.713
  899SOL    HW1 2709   0.089   3.582   3.766
  899SOL    HW2 2710   0.194   3.707   3.771
  900SOL     OW 2711   1.280   2.789   2.534
  900SOL    HW1 2712   1.340   2.708   2.536
  900SOL    HW2 2713   1.320   2.858   2.474
  901SOL     OW 2714   0.830   3.135   3.284
  901SOL    HW1 2715   0.825   3.168   3.379
  901SOL    HW2 2716   0.744   3.154   3.238
  902SOL     OW 2717   0.672   3.478   2.016
  902SOL    HW1 2718   0.681   3.488   1.917
  902SOL    HW2 2719   0.632   3.389   2.037
  903SOL     OW 2720   1.650   3.582   3.256
  903SOL    HW1 2721   1.703   3.592   3.172
  903SOL    HW2 2722   1.623   3.672   3.290
  904SOL     OW 2723   1.841   2.037   2.825
  904SOL    HW1 2724   1.880   1.952   2.789
  904SOL    HW2 2725   1.743   2.039   2.806
  905SOL     OW 2726   0.263   2.188   2.582
  905SOL    HW1 2727   0.184   2.239   2.548
  905SOL    HW2 2728   0.254   2.173   2.680
  906SOL     OW 2729   1.194   3.474   1.893
  906SOL    HW1 2730   1.200   3.381   1.930
  906SOL    HW2 2731   1.135   3.474   1.813
  907SOL     OW 2732   0.822   2.864   3.234
  907SOL    HW1 2733   0.862   2.863   3.142
  907SOL    HW2 2734   0.832   2.956   3.274
  908SOL     OW 2735   0.916   2.772   2.153
  908SOL    HW1 2736   0.979   2.810   2.085
  908SOL    HW2 2737   0.956   2.689   2.192
  909SOL     OW 2738   1.504   3.469   1.906
  909SOL    HW1 2739   1.412   3.506   1.913
  909SOL    HW2 2740   1.542   3.489   1.816
  910SOL     OW 2741   0.372   3.150   3.352
  910SOL    HW1 2742   0.359   3.243   3.318
  910SOL    HW2 2743   0.288   3.098   3.339
  911SOL     OW 2744   1.614   3.154   3.151
  911SOL    HW1 2745   1.674   3.157   3.231
  911SOL    HW2 2746   1.539   3.218   3.164
  912SOL     OW 2747   1.039   2.960   2.558
  912SOL    HW1 2748   0.969   2.913   2.612
  912SOL    HW2 2749   1.098   2.892   2.515
  913SOL     OW 2750   1.014   2.098   2.833
  913SOL    HW1 2751   1.006   2.062   2.740
  913SOL    HW2 2752   1.012   2.022   2.898
  914SOL     OW 2753   0.590   3.349   2.353
  914SOL    HW1 2754   0.632   3.291   2.283
  914SOL    HW2 2755   0.546   3.428   2.309
  915SOL     OW 2756   1.709   2.247   3.243
  915SOL    HW1 2757   1.782   2.316   3.247
  915SOL    HW2 2758   1.737   2.172   3.184
  916SOL     OW 2759   0.255   3.210   2.152
  916SOL    HW1 2760   0.159   3.211   2.125
  916SOL    HW2 2761   0.267   3.263   2.236
  917SOL     OW 2762   0.105   2.875   3.588
  917SOL    HW1 2763   0.028   2.842   3.642
  917SOL    HW2 2764   0.190   2.845   3.630
  918SOL     OW 2765   0.672   2.065   3.351
  918SOL    HW1 2766   0.762   2.049   3.311
  918SOL    HW2 2767   0.680   2.070   3.450
  919SOL     OW 2768   0.075   2.207   1.895
  919SOL    HW1 2769  -0.017   2.179   1.866
  919SOL    HW2 2770   0.106   2.284   1.839
  920SOL     OW 2771   1.440   2.718   3.260
  920SOL    HW1 2772   1.383   2.770   3.197
  920SOL    HW2 2773   1.536   2.730   3.236
  921SOL     OW 2774   0.072   2.028   2.180
  921SOL    HW1 2775   0.055   2.111   2.126
  921SOL    HW2 2776   0.162   1.991   2.158
  922SOL     OW 2777   1.183   3.197   1.981
  922SOL    HW1 2778   1.084   3.186   1.983
  922SOL    HW2 2779   1.217   3.212   2.074
  923SOL     OW 2780   0.613   2.704   3.293
  923SOL    HW1 2781   0.669   2.785   3.276
  923SOL    HW2 2782   0.672   2.624   3.296
  924SOL     OW 2783   1.493   3.629   2.821
  924SOL    HW1 2784   1.526   3.693   2.752
  924SOL    HW2 2785   1.559   3.623   2.896
  925SOL     OW 2786   0.716   2.427   3.570
  925SOL    HW1 2787   0.735   2.492   3.644
  925SOL    HW2 2788   0.776   2.347   3.579
  926SOL     OW 2789   1.450   3.082   3.495
  926SOL    HW1 2790   1.441   3.072   3.594
  926SOL    HW2 2791   1.546   3.075   3.469
  927SOL     OW 2792   0.390   3.603   3.422
  927SOL    HW1 2793   0.299   3.644   3.420
  927SOL    HW2 2794   0.383   3.509   3.454
  928SOL     OW 2795   1.674   2.745   3.116
  928SOL    HW1 2796   1.647   2.656   3.079
  928SOL    HW2 2797   1.675   2.813   3.043
  929SOL     OW 2798   1.225   2.187   2.311
  929SOL    HW1 2799   1.290   2.113   2.300
  929SOL    HW2 2800   1.245   2.237   2.395
  930SOL     OW 2801   0.594   2.607   2.514
  930SOL    HW1 2802   0.644   2.692   2.495
  930SOL    HW2 2803   0.506   2.609   2.466
  931SOL     OW 2804   1.777   2.204   3.504
  931SOL    HW1 2805   1.760   2.235   3.410
  931SOL    HW2 2806   1.693   2.167   3.542
  932SOL     OW 2807   1.730   2.796   3.379
  932SOL    HW1 2808   1.768   2.887   3.394
  932SOL    HW2 2809   1.722   2.779   3.280
  933SOL     OW 2810   0.859   3.236   1.878
  933SOL    HW1 2811   0.813   3.251   1.966
  933SOL    HW2 2812   0.903   3.321   1.848
  934SOL     OW 2813   0.661   3.652   2.815
  934SOL    HW1 2814   0.615   3.740   2.802
  934SOL    HW2 2815   0.760   3.664   2.808
  935SOL     OW 2816   0.859   2.818   2.723
  935SOL    HW1 2817   0.913   2.749   2.771
  935SOL    HW2 2818   0.827   2.887   2.789
  936SOL     OW 2819   1.083   2.846   1.949
  936SOL    HW1 2820   1.060   2.899   1.867
  936SOL    HW2 2821   1.164   2.790   1.930
  937SOL     OW 2822   1.861   3.431   2.713
  937SOL    HW1 2823   1.790   3.419   2.643
  937SOL    HW2 2824   1.862   3.352   2.773
  938SOL     OW 2825   0.221   3.176   3.706
  938SOL    HW1 2826   0.156   3.103   3.685
  938SOL    HW2 2827   0.225   3.190   3.804
  939SOL     OW 2828   0.079   3.102   2.515
  939SOL    HW1 2829   0.078   3.055   2.603
  939SOL    HW2 2830   0.161   3.074   2.464
  940SOL     OW 2831   0.672   3.253   3.486
  940SOL    HW1 2832   0.594   3.203   3.524
  940SOL    HW2 2833   0.669   3.348   3.517
  941SOL     OW 2834   1.824   2.054   3.089
  941SOL    HW1 2835   1.820   1.964   3.133
  941SOL    HW2 2836   1.827   2.043   2.990
  942SOL     OW 2837   0.428   2.286   2.382
  942SOL    HW1 2838   0.458   2.214   2.320
  942SOL    HW2 2839   0.389   2.246   2.465
  943SOL     OW 2840   1.705   3.349   2.966
  943SOL    HW1 2841   1.612   3.324   2.939
  943SOL    HW2 2842   1.731   3.299   3.048
  944SOL     OW 2843   0.317   2.409   3.142
  944SOL    HW1 2844   0.355   2.350   3.214
  944SOL    HW2 2845   0.357   2.383   3.054
  945SOL     OW 2846   0.812   3.448   2.549
  945SOL    HW1 2847   0.844   3.458   2.455
  945SOL    HW2 2848   0.733   3.386   2.551
  946SOL     OW 2849   1.424   2.076   2.974
  946SOL    HW1 2850   1.476   2.011   3.029
  946SOL    HW2 2851   1.375   2.139   3.035
  947SOL     OW 2852   1.001   1.896   3.016
  947SOL    HW1 2853   0.938   1.824   2.985
  947SOL    HW2 2854   1.094   1.860   3.016
  948SOL     OW 2855   0.770   3.192   2.163
  948SOL    HW1 2856   0.724   3.105   2.180
  948SOL    HW2 2857   0.861   3.189   2.204
  949SOL     OW 2858   0.618   3.429   3.146
  949SOL    HW1 2859   0.613   3.511   3.203
  949SOL    HW2 2860   0.707   3.426   3.101
  950SOL     OW 2861   1.352   1.914   2.030
  950SOL    HW1 2862   1.387   1.873   1.946
  950SOL    HW2 2863   1.262   1.876   2.050
  951SOL     OW 2864   1.300   2.315   2.553
  951SOL    HW1 2865   1.241   2.395   2.557
  951SOL    HW2 2866   1.315   2.280   2.646
  952SOL     OW 2867   1.593   2.083   2.744
  952SOL    HW1 2868   1.509   2.082   2.798
  952SOL    HW2 2869   1.595   2.166   2.688
  953SOL     OW 2870   0.039   2.939   2.162
  953SOL    HW1 2871   0.138   2.928   2.153
  953SOL    HW2 2872  -0.001   2.853   2.194
  954SOL     OW 2873   0.875   3.508   2.199
  954SOL    HW1 2874   0.798   3.473   2.145
  954SOL    HW2 2875   0.843   3.579   2.261
  955SOL     OW 2876   0.230   2.490   3.837
  955SOL    HW1 2877   0.137   2.488   3.874
  955SOL    HW2 2878   0.231   2.451   3.745
  956SOL     OW 2879   0.019   2.230   4.371
  956SOL    HW1 2880  -0.063   2.273   4.410
  956SOL    HW2 2881  -0.009   2.157   4.308
  957SOL     OW 2882   1.555   3.373   4.427
  957SOL    HW1 2883   1.498   3.357   4.508
  957SOL    HW2 2884   1.496   3.383   4.347
  958SOL     OW 2885   1.135   2.565   4.441
  958SOL    HW1 2886   1.192   2.643   4.416
  958SOL    HW2 2887   1.075   2.591   4.517
  959SOL     OW 2888   1.755   2.469   3.955
  959SOL    HW1 2889   1.743   2.456   3.856
  959SOL    HW2 2890   1.725   2.388   4.004
  960SOL     OW 2891   0.685   2.874   4.389
  960SOL    HW1 2892   0.754   2.858   4.459
  960SOL    HW2 2893   0.612   2.931   4.427
  961SOL     OW 2894   1.603   2.309   4.461
  961SOL    HW1 2895   1.529   2.355   4.411
  961SOL    HW2 2896   1.654   2.377   4.514
  962SOL     OW 2897   0.231   3.575   4.207
  962SOL    HW1 2898   0.265   3.652   4.261
  962SOL    HW2 2899   0.275   3.575   4.117
  963SOL     OW 2900   0.230   3.296   4.262
  963SOL    HW1 2901   0.204   3.392   4.262
  963SOL    HW2 2902   0.159   3.242   4.307
  964SOL     OW 2903   0.240   2.953   4.610
  964SOL    HW1 2904   0.254   2.869   4.662
  964SOL    HW2 2905   0.185   3.017   4.665
  965SOL     OW 2906   0.606   2.826   3.847
  965SOL    HW1 2907   0.613   2.910   3.793
  965SOL    HW2 2908   0.652   2.839   3.935
  966SOL     OW 2909   0.122   2.505   4.287
  966SOL    HW1 2910   0.077   2.417   4.304
  966SOL    HW2 2911   0.121   2.559   4.371
  967SOL     OW 2912   1.842   3.629   4.083
  967SOL    HW1 2913   1.896   3.600   4.163
  967SOL    HW2 2914   1.872   3.719   4.054
  968SOL     OW 2915   0.027   3.458   3.841
  968SOL    HW1 2916   0.008   3.362   3.862
  968SOL    HW2 2917  -0.006   3.516   3.916
  969SOL     OW 2918   1.689   2.784   4.336
  969SOL    HW1 2919   1.784   2.755   4.344
  969SOL    HW2 2920   1.681   2.849   4.261
  970SOL     OW 2921   1.641   2.970   4.156
  970SOL    HW1 2922   1.727   2.972   4.104
  970SOL    HW2 2923   1.655   3.017   4.244
  971SOL     OW 2924   0.613   3.227   4.450
  971SOL    HW1 2925   0.564   3.140   4.459
  971SOL    HW2 2926   0.590   3.270   4.363
  972SOL     OW 2927   0.809   1.866   4.226
  972SOL    HW1 2928   0.849   1.957   4.217
  972SOL    HW2 2929   0.709   1.874   4.232
  973SOL     OW 2930   1.525   2.861   3.914
  973SOL    HW1 2931   1.462   2.785   3.927
  973SOL    HW2 2932   1.573   2.879   4.000
  974SOL     OW 2933   1.466   3.279   4.677
  974SOL    HW1 2934   1.407   3.285   4.757
  974SOL    HW2 2935   1.451   3.191   4.631
  975SOL     OW 2936   1.667   3.576   4.296
  975SOL    HW1 2937   1.626   3.553   4.208
  975SOL    HW2 2938   1.649   3.502   4.361
  976SOL     OW 2939   0.598   2.591   3.994
  976SOL    HW1 2940   0.622   2.660   3.926
  976SOL    HW2 2941   0.520   2.624   4.048
  977SOL     OW 2942   1.281   2.207   4.668
  977SOL    HW1 2943   1.195   2.157   4.655
  977SOL    HW2 2944   1.343   2.153   4.724
  978SOL     OW 2945   1.576   3.524   4.031
  978SOL    HW1 2946   1.665   3.570   4.034
  978SOL    HW2 2947   1.555   3.500   3.936
  979SOL     OW 2948   1.041   2.563   4.153
  979SOL    HW1 2949   1.067   2.559   4.249
  979SOL    HW2 2950   0.956   2.512   4.139
  980SOL     OW 2951   0.076   2.673   4.513
  980SOL    HW1 2952   0.175   2.661   4.522
  980SOL    HW2 2953   0.052   2.768   4.534
  981SOL     OW 2954   0.865   2.210   3.919
  981SOL    HW1 2955   0.924   2.273   3.870
  981SOL    HW2 2956   0.884   2.116   3.890
  982SOL     OW 2957   1.362   3.006   4.269
  982SOL    HW1 2958   1.445   2.977   4.221
  982SOL    HW2 2959   1.313   3.073   4.213
  983SOL     OW 2960   0.550   2.058   4.609
  983SOL    HW1 2961   0.545   2.053   4.709
  983SOL    HW2 2962   0.552   2.154   4.580
  984SOL     OW 2963   1.008   3.318   4.201
  984SOL    HW1 2964   0.962   3.390   4.149
  984SOL    HW2 2965   1.004   3.338   4.299
  985SOL     OW 2966   0.351   3.663   4.577
  985SOL    HW1 2967   0.401   3.577   4.583
  985SOL    HW2 2968   0.416   3.740   4.574
  986SOL     OW 2969   1.795   2.928   4.597
  986SOL    HW1 2970   1.733   2.913   4.521
  986SOL    HW2 2971   1.743   2.939   4.682
  987SOL     OW 2972   0.321   2.805   3.966
  987SOL    HW1 2973   0.403   2.844   3.924
  987SOL    HW2 2974   0.294   2.723   3.917
  988SOL     OW 2975   1.458   2.597   4.452
  988SOL    HW1 2976   1.453   2.532   4.527
  988SOL    HW2 2977   1.538   2.656   4.465
  989SOL     OW 2978   1.111   3.638   3.961
  989SOL    HW1 2979   1.051   3.576   4.011
  989SOL    HW2 2980   1.142   3.594   3.876
  990SOL     OW 2981   1.632   3.239   3.805
  990SOL    HW1 2982   1.600   3.333   3.795
  990SOL    HW2 2983   1.556   3.176   3.793
  991SOL     OW 2984   0.464   3.605   4.047
  991SOL    HW1 2985   0.497   3.644   4.133
  991SOL    HW2 2986   0.540   3.598   3.982
  992SOL     OW 2987   1.400   1.969   4.150
  992SOL    HW1 2988   1.376   1.932   4.060
  992SOL    HW2 2989   1.499   1.985   4.154
  993SOL     OW 2990   0.382   2.562   4.204
  993SOL    HW1 2991   0.427   2.472   4.201
  993SOL    HW2 2992   0.288   2.551   4.237
  994SOL     OW 2993   0.614   1.984   3.841
  994SOL    HW1 2994   0.712   1.962   3.848
  994SOL    HW2 2995   0.583   1.967   3.748
  995SOL     OW 2996   0.539   1.926   4.236
  995SOL    HW1 2997   0.458   1.927   4.294
  995SOL    HW2 2998   0.542   2.009   4.181
  996SOL     OW 2999   1.434   3.050   3.765
  996SOL    HW1 3000   1.466   2.974   3.822
  996SOL    HW2 3001   1.342   3.077   3.795
  997SOL     OW 3002   0.297   1.897   3.895
  997SOL    HW1 3003   0.346   1.981   3.874
  997SOL    HW2 3004   0.359   1.832   3.940
  998SOL     OW 3005   0.935   2.098   4.204
  998SOL    HW1 3006   0.887   2.139   4.126
  998SOL    HW2 3007   1.034   2.096   4.185
  999SOL     OW 3008   1.227   3.432   4.517
  999SOL    HW1 3009   1.248   3.506   4.452
  999SOL    HW2 3010   1.295   3.432   4.590
 1000SOL     OW 3011   0.459   3.014   4.465
 1000SOL    HW1 3012   0.388   2.987   4.530
 1000SOL    HW2 3013   0.433   2.986   4.372
 1001SOL     OW 3014   1.271   3.659   4.315
 1001SOL    HW1 3015   1.315   3.723   4.251
 1001SOL    HW2 3016   1.221   3.711   4.385
 1002SOL     OW 3017   1.032   2.411   3.740
 1002SOL    HW1 3018   0.991   2.493   3.701
 1002SOL    HW2 3019   1.096   2.437   3.813
 1003SOL     OW 3020   0.866   2.316   4.366
 1003SOL    HW1 3021   0.834   2.388   4.304
 1003SOL    HW2 3022   0.890   2.235   4.313
 1004SOL     OW 3023   1.017   1.901   4.477
 1004SOL    HW1 3024   0.945   1.906   4.408
 1004SOL    HW2 3025   0.993   1.832   4.546
 1005SOL     OW 3026   1.857   2.695   4.101
 1005SOL    HW1 3027   1.899   2.631   4.165
 1005SOL    HW2 3028   1.819   2.644   4.023
 1006SOL     OW 3029   0.488   3.247   3.898
 1006SOL    HW1 3030   0.401   3.232   3.945
 1006SOL    HW2 3031   0.471   3.273   3.803
 1007SOL     OW 3032   1.664   3.142   4.381
 1007SOL    HW1 3033   1.763   3.150   4.395
 1007SOL    HW2 3034   1.619   3.226   4.412
 1008SOL     OW 3035   1.390   2.437   3.802
 1008SOL    HW1 3036   1.336   2.416   3.883
 1008SOL    HW2 3037   1.481   2.396   3.811
 1009SOL     OW 3038   0.527   2.118   4.052
 1009SOL    HW1 3039   0.554   2.059   3.977
 1009SOL    HW2 3040   0.527   2.213   4.021
 1010SOL     OW 3041   0.705   2.912   4.092
 1010SOL    HW1 3042   0.691   2.919   4.191
 1010SOL    HW2 3043   0.789   2.861   4.074
 1011SOL     OW 3044   0.367   2.962   4.225
 1011SOL    HW1 3045   0.360   3.045   4.169
 1011SOL    HW2 3046   0.371   2.882   4.165
 1012SOL     OW 3047   0.566   2.399   4.589
 1012SOL    HW1 3048   0.578   2.465   4.515
 1012SOL    HW2 3049   0.612   2.433   4.672
 1013SOL     OW 3050   1.252   3.210   4.112
 1013SOL    HW1 3051   1.302   3.287   4.152
 1013SOL    HW2 3052   1.157   3.212   4.144
 1014SOL     OW 3053   1.582   2.501   4.196
 1014SOL    HW1 3054   1.551   2.562   4.269
 1014SOL    HW2 3055   1.632   2.553   4.127
 1015SOL     OW 3056   1.209   2.387   3.999
 1015SOL    HW1 3057   1.222   2.303   4.053
 1015SOL    HW2 3058   1.180   2.461   4.059
 1016SOL     OW 3059   0.732   2.496   4.788
 1016SOL    HW1 3060   0.791   2.470   4.712
 1016SOL    HW2 3061   0.704   2.592   4.777
 1017SOL     OW 3062   0.307   1.925   4.342
 1017SOL    HW1 3063   0.296   2.019   4.375
 1017SOL    HW2 3064   0.302   1.862   4.419
 1018SOL     OW 3065   1.622   2.229   4.098
 1018SOL    HW1 3066   1.624   2.153   4.162
 1018SOL    HW2 3067   1.574   2.306   4.138
 1019SOL     OW 3068   1.540   2.136   3.849
 1019SOL    HW1 3069   1.479   2.061   3.872
 1019SOL    HW2 3070   1.562   2.188   3.932
 1020SOL     OW 3071   1.303   2.700   3.766
 1020SOL    HW1 3072   1.337   2.607   3.781
 1020SOL    HW2 3073   1.321   2.727   3.671
 1021SOL     OW 3074   1.068   3.195   4.573
 1021SOL    HW1 3075   1.075   3.111   4.518
 1021SOL    HW2 3076   1.130   3.264   4.537
 1022SOL     OW 3077   0.008   3.188   3.924
 1022SOL    HW1 3078  -0.085   3.209   3.893
 1022SOL    HW2 3079   0.018   3.089   3.937
 1023SOL     OW 3080   0.088   3.663   4.651
 1023SOL    HW1 3081   0.046   3.577   4.624
 1023SOL    HW2 3082   0.182   3.666   4.617
 1024SOL     OW 3083   0.504   3.430   4.634
 1024SOL    HW1 3084   0.570   3.504   4.643
 1024SOL    HW2 3085   0.548   3.351   4.592
 1025SOL     OW 3086   0.815   2.434   4.049
 1025SOL    HW1 3087   0.822   2.345   4.003
 1025SOL    HW2 3088   0.721   2.468   4.041
 1026SOL     OW 3089   0.473   2.362   3.915
 1026SOL    HW1 3090   0.534   2.442   3.919
 1026SOL    HW2 3091   0.378   2.393   3.922
 1027SOL     OW 3092   1.302   2.717   4.033
 1027SOL    HW1 3093   1.216   2.686   4.075
 1027SOL    HW2 3094   1.298   2.703   3.934
 1028SOL     OW 3095   1.726   1.997   4.247
 1028SOL    HW1 3096   1.799   1.980   4.180
 1028SOL    HW2 3097   1.695   1.910   4.285
 1029SOL     OW 3098   1.388   3.435   4.201
 1029SOL    HW1 3099   1.455   3.447   4.127
 1029SOL    HW2 3100   1.348   3.524   4.224
 1030SOL     OW 3101   1.280   2.789   4.396
 1030SOL    HW1 3102   1.340   2.708   4.398
 1030SOL    HW2 3103   1.320   2.858   4.336
 1031SOL     OW 3104   0.672   3.478   3.878
 1031SOL    HW1 3105   0.681   3.488   3.779
 1031SOL    HW2 3106   0.632   3.389   3.899
 1032SOL     OW 3107   1.841   2.037   4.687
 1032SOL    HW1 3108   1.880   1.952   4.651
 1032SOL    HW2 3109   1.743   2.039   4.668
 1033SOL     OW 3110   0.263   2.188   4.444
 1033SOL    HW1 3111   0.184   2.239   4.410
 1033SOL    HW2 3112   0.254   2.173   4.542
 1034SOL     OW 3113   1.194   3.474   3.755
 1034SOL    HW1 3114   1.200   3.381   3.792
 1034SOL    HW2 3115   1.135   3.474   3.675
 1035SOL     OW 3116   0.916   2.772   4.015
 1035SOL    HW1 3117   0.979   2.810   3.947
 1035SOL    HW2 3118   0.956   2.689   4.054
 1036SOL     OW 3119   1.504   3.469   3.768
 1036SOL    HW1 3120   1.412   3.506   3.775
 1036SOL    HW2 3121   1.542   3.489   3.678
 1037SOL     OW 3122   1.039   2.960   4.420
 1037SOL    HW1 3123   0.969   2.913   4.474
 1037SOL    HW2 3124   1.098   2.892   4.377
 1038SOL     OW 3125   0.590   3.349   4.215
 1038SOL    HW1 3126   0.632   3.291   4.145
 1038SOL    HW2 3127   0.546   3.428   4.171
 1039SOL     OW 3128   0.255   3.210   4.014
 1039SOL    HW1 3129   0.159   3.211   3.987
 1039SOL    HW2 3130   0.267   3.263   4.098
 1040SOL     OW 3131   0.075   2.207   3.757
 1040SOL    HW1 3132  -0.017   2.179   3.728
 1040SOL    HW2 3133   0.106   2.284   3.701
 1041SOL     OW 3134   0.072   2.028   4.042
 1041SOL    HW1 3135   0.055   2.111   3.988
 1041SOL    HW2 3136   0.162   1.991   4.020
 1042SOL     OW 3137   1.183   3.197   3.843
 1042SOL    HW1 3138   1.084   3.186   3.845
 1042SOL    HW2 3139   1.217   3.212   3.936
 1043SOL     OW 3140   1.225   2.187   4.173
 1043SOL    HW1 3141   1.290   2.113   4.162
 1043SOL    HW2 3142   1.245   2.237   4.257
 1044SOL     OW 3143   0.594   2.607   4.376
 1044SOL    HW1 3144   0.644   2.692   4.357
 1044SOL    HW2 3145   0.506   2.609   4.328
 1045SOL     OW 3146   0.859   3.236   3.740
 1045SOL    HW1 3147   0.813   3.251   3.828
 1045SOL    HW2 3148   0.903   3.321   3.710
 1046SOL     OW 3149   0.661   3.652   4.677
 1046SOL    HW1 3150   0.615   3.740   4.664
 1046SOL    HW2 3151   0.760   3.664   4.670
 1047SOL     OW 3152   0.859   2.818   4.585
 1047SOL    HW1 3153   0.913   2.749   4.633
 1047SOL    HW2 3154   0.827   2.887   4.651
 1048SOL     OW 3155   1.083   2.846   3.811
 1048SOL    HW1 3156   1.060   2.899   3.729
 1048SOL    HW2 3157   1.164   2.790   3.792
 1049SOL     OW 3158   1.861   3.431   4.575
 1049SOL    HW1 3159   1.790   3.419   4.505
 1049SOL    HW2 3160   1.862   3.352   4.635
 1050SOL     OW 3161   0.079   3.102   4.377
 1050SOL    HW1 3162   0.078   3.055   4.465
 1050SOL    HW2 3163   0.161   3.074   4.326
 1051SOL     OW 3164   0.428   2.286   4.244
 1051SOL    HW1 3165   0.458   2.214   4.182
 1051SOL    HW2 3166   0.389   2.246   4.327
 1052SOL     OW 3167   0.812   3.448   4.411
 1052SOL    HW1 3168   0.844   3.458   4.317
 1052SOL    HW2 3169   0.733   3.386   4.413
 1053SOL     OW 3170   0.770   3.192   4.025
 1053SOL    HW1 3171   0.724   3.105   4.042
 1053SOL    HW2 3172   0.861   3.189   4.066
 1054SOL     OW 3173   1.352   1.914   3.892
 1054SOL    HW1 3174   1.387   1.873   3.808
 1054SOL    HW2 3175   1.262   1.876   3.912
 1055SOL     OW 3176   1.300   2.315   4.415
 1055SOL    HW1 3177   1.241   2.395   4.419
 1055SOL    HW2 3178   1.315   2.280   4.508
 1056SOL     OW 3179   1.593   2.083   4.606
 1056SOL    HW1 3180   1.509   2.082   4.660
 1056SOL    HW2 3181   1.595   2.166   4.550
 1057SOL     OW 3182   0.039   2.939   4.024
 1057SOL    HW1 3183   0.138   2.928   4.015
 1057SOL    HW2 3184  -0.001   2.853   4.056
 1058SOL     OW 3185   0.875   3.508   4.061
 1058SOL    HW1 3186   0.798   3.473   4.007
 1058SOL    HW2 3187   0.843   3.579   4.123
 1059SOL     OW 3188   0.230   4.352   0.113
 1059SOL    HW1 3189   0.137   4.350   0.150
 1059SOL    HW2 3190   0.231   4.313   0.021
 1060SOL     OW 3191   0.225   3.999   0.996
 1060SOL    HW1 3192   0.260   3.982   1.088
 1060SOL    HW2 3193   0.137   3.954   0.984
 1061SOL     OW 3194   0.019   4.092   0.647
 1061SOL    HW1 3195  -0.063   4.135   0.686
 1061SOL    HW2 3196  -0.009   4.019   0.584
 1062SOL     OW 3197   1.135   4.427   0.717
 1062SOL    HW1 3198   1.192   4.505   0.692
 1062SOL    HW2 3199   1.075   4.453   0.793
 1063SOL     OW 3200   1.755   4.331   0.231
 1063SOL    HW1 3201   1.743   4.318   0.132
 1063SOL    HW2 3202   1.725   4.250   0.280
 1064SOL     OW 3203   0.850   4.522   1.823
 1064SOL    HW1 3204   0.846   4.598   1.888
 1064SOL    HW2 3205   0.872   4.558   1.732
 1065SOL     OW 3206   0.685   4.736   0.665
 1065SOL    HW1 3207   0.754   4.720   0.735
 1065SOL    HW2 3208   0.612   4.793   0.703
 1066SOL     OW 3209   0.438   4.116   1.499
 1066SOL    HW1 3210   0.520   4.060   1.508
 1066SOL    HW2 3211   0.357   4.058   1.503
 1067SOL     OW 3212   1.603   4.171   0.737
 1067SOL    HW1 3213   1.529   4.217   0.687
 1067SOL    HW2 3214   1.654   4.239   0.790
 1068SOL     OW 3215   1.594   3.838   1.480
 1068SOL    HW1 3216   1.576   3.905   1.408
 1068SOL    HW2 3217   1.591   3.884   1.569
 1069SOL     OW 3218   0.122   4.367   0.563
 1069SOL    HW1 3219   0.077   4.279   0.580
 1069SOL    HW2 3220   0.121   4.421   0.647
 1070SOL     OW 3221   0.113   4.461   1.597
 1070SOL    HW1 3222   0.201   4.448   1.642
 1070SOL    HW2 3223   0.100   4.558   1.575
 1071SOL     OW 3224   0.809   3.728   0.502
 1071SOL    HW1 3225   0.849   3.819   0.493
 1071SOL    HW2 3226   0.709   3.736   0.508
 1072SOL     OW 3227   0.317   3.975   1.801
 1072SOL    HW1 3228   0.388   4.046   1.807
 1072SOL    HW2 3229   0.229   4.014   1.829
 1073SOL     OW 3230   0.598   4.453   0.270
 1073SOL    HW1 3231   0.622   4.522   0.202
 1073SOL    HW2 3232   0.520   4.486   0.324
 1074SOL     OW 3233   1.281   4.069   0.944
 1074SOL    HW1 3234   1.195   4.019   0.931
 1074SOL    HW2 3235   1.343   4.015   1.000
 1075SOL     OW 3236   0.807   4.329   1.465
 1075SOL    HW1 3237   0.760   4.326   1.554
 1075SOL    HW2 3238   0.756   4.274   1.399
 1076SOL     OW 3239   1.394   4.193   1.674
 1076SOL    HW1 3240   1.374   4.236   1.762
 1076SOL    HW2 3241   1.472   4.131   1.683
 1077SOL     OW 3242   0.973   4.614   1.572
 1077SOL    HW1 3243   1.019   4.530   1.543
 1077SOL    HW2 3244   0.917   4.648   1.497
 1078SOL     OW 3245   0.991   4.134   1.242
 1078SOL    HW1 3246   0.914   4.168   1.296
 1078SOL    HW2 3247   0.957   4.083   1.163
 1079SOL     OW 3248   1.041   4.425   0.429
 1079SOL    HW1 3249   1.067   4.421   0.525
 1079SOL    HW2 3250   0.956   4.374   0.415
 1080SOL     OW 3251   0.076   4.535   0.789
 1080SOL    HW1 3252   0.175   4.523   0.798
 1080SOL    HW2 3253   0.052   4.630   0.810
 1081SOL     OW 3254   0.865   4.072   0.195
 1081SOL    HW1 3255   0.924   4.135   0.146
 1081SOL    HW2 3256   0.884   3.978   0.166
 1082SOL     OW 3257   1.719   4.309   1.831
 1082SOL    HW1 3258   1.693   4.398   1.795
 1082SOL    HW2 3259   1.717   4.241   1.758
 1083SOL     OW 3260   0.550   3.920   0.885
 1083SOL    HW1 3261   0.545   3.915   0.985
 1083SOL    HW2 3262   0.552   4.016   0.856
 1084SOL     OW 3263   1.458   4.459   0.728
 1084SOL    HW1 3264   1.453   4.394   0.803
 1084SOL    HW2 3265   1.538   4.518   0.741
 1085SOL     OW 3266   0.202   4.009   1.498
 1085SOL    HW1 3267   0.122   4.069   1.485
 1085SOL    HW2 3268   0.192   3.960   1.584
 1086SOL     OW 3269   1.400   3.831   0.426
 1086SOL    HW1 3270   1.376   3.794   0.336
 1086SOL    HW2 3271   1.499   3.847   0.430
 1087SOL     OW 3272   0.382   4.424   0.480
 1087SOL    HW1 3273   0.427   4.334   0.477
 1087SOL    HW2 3274   0.288   4.413   0.513
 1088SOL     OW 3275   1.547   3.946   1.729
 1088SOL    HW1 3276   1.542   3.983   1.821
 1088SOL    HW2 3277   1.475   3.877   1.717
 1089SOL     OW 3278   0.781   3.988   1.749
 1089SOL    HW1 3279   0.848   3.927   1.792
 1089SOL    HW2 3280   0.708   4.007   1.814
 1090SOL     OW 3281   1.351   4.314   1.433
 1090SOL    HW1 3282   1.379   4.271   1.518
 1090SOL    HW2 3283   1.376   4.410   1.434
 1091SOL     OW 3284   0.922   4.227   0.899
 1091SOL    HW1 3285   0.897   4.218   0.803
 1091SOL    HW2 3286   0.970   4.145   0.930
 1092SOL     OW 3287   0.539   3.788   0.512
 1092SOL    HW1 3288   0.458   3.789   0.570
 1092SOL    HW2 3289   0.542   3.871   0.457
 1093SOL     OW 3290   0.297   3.759   0.171
 1093SOL    HW1 3291   0.346   3.843   0.150
 1093SOL    HW2 3292   0.359   3.694   0.216
 1094SOL     OW 3293   0.935   3.960   0.480
 1094SOL    HW1 3294   0.887   4.001   0.402
 1094SOL    HW2 3295   1.034   3.958   0.461
 1095SOL     OW 3296   1.076   4.407   1.464
 1095SOL    HW1 3297   0.996   4.346   1.467
 1095SOL    HW2 3298   1.157   4.354   1.440
 1096SOL     OW 3299   1.032   4.273   0.016
 1096SOL    HW1 3300   0.991   4.355  -0.023
 1096SOL    HW2 3301   1.096   4.299   0.089
 1097SOL     OW 3302   0.078   4.280   1.386
 1097SOL    HW1 3303   0.170   4.279   1.345
 1097SOL    HW2 3304   0.072   4.354   1.453
 1098SOL     OW 3305   0.561   3.946   1.147
 1098SOL    HW1 3306   0.599   3.862   1.184
 1098SOL    HW2 3307   0.473   3.965   1.191
 1099SOL     OW 3308   0.866   4.178   0.642
 1099SOL    HW1 3309   0.834   4.250   0.580
 1099SOL    HW2 3310   0.890   4.097   0.589
 1100SOL     OW 3311   1.017   3.763   0.753
 1100SOL    HW1 3312   0.945   3.768   0.684
 1100SOL    HW2 3313   0.993   3.694   0.822
 1101SOL     OW 3314   1.466   4.314   0.992
 1101SOL    HW1 3315   1.436   4.219   0.999
 1101SOL    HW2 3316   1.539   4.330   1.058
 1102SOL     OW 3317   1.857   4.557   0.377
 1102SOL    HW1 3318   1.899   4.493   0.441
 1102SOL    HW2 3319   1.819   4.506   0.299
 1103SOL     OW 3320   1.390   4.299   0.078
 1103SOL    HW1 3321   1.336   4.278   0.159
 1103SOL    HW2 3322   1.481   4.258   0.087
 1104SOL     OW 3323   0.527   3.980   0.328
 1104SOL    HW1 3324   0.554   3.921   0.253
 1104SOL    HW2 3325   0.527   4.075   0.297
 1105SOL     OW 3326   0.915   3.813   1.402
 1105SOL    HW1 3327   0.940   3.793   1.307
 1105SOL    HW2 3328   0.987   3.869   1.444
 1106SOL     OW 3329   0.410   4.537   1.251
 1106SOL    HW1 3330   0.496   4.549   1.301
 1106SOL    HW2 3331   0.368   4.450   1.278
 1107SOL     OW 3332   1.274   4.110   1.262
 1107SOL    HW1 3333   1.295   4.184   1.326
 1107SOL    HW2 3334   1.185   4.127   1.219
 1108SOL     OW 3335   0.566   4.261   0.865
 1108SOL    HW1 3336   0.578   4.327   0.791
 1108SOL    HW2 3337   0.612   4.295   0.948
 1109SOL     OW 3338   1.582   4.363   0.472
 1109SOL    HW1 3339   1.551   4.424   0.545
 1109SOL    HW2 3340   1.632   4.415   0.403
 1110SOL     OW 3341   0.402   4.475   1.598
 1110SOL    HW1 3342   0.470   4.530   1.551
 1110SOL    HW2 3343   0.442   4.387   1.625
 1111SOL     OW 3344   1.587   4.503   1.670
 1111SOL    HW1 3345   1.495   4.541   1.665
 1111SOL    HW2 3346   1.647   4.550   1.605
 1112SOL     OW 3347   1.013   3.829   1.770
 1112SOL    HW1 3348   1.019   3.914   1.718
 1112SOL    HW2 3349   1.045   3.753   1.713
 1113SOL     OW 3350   0.504   3.774   1.740
 1113SOL    HW1 3351   0.462   3.717   1.670
 1113SOL    HW2 3352   0.438   3.843   1.772
 1114SOL     OW 3353   0.573   4.594   1.029
 1114SOL    HW1 3354   0.617   4.683   1.020
 1114SOL    HW2 3355   0.510   4.594   1.106
 1115SOL     OW 3356   1.360   4.586   1.045
 1115SOL    HW1 3357   1.285   4.586   0.979
 1115SOL    HW2 3358   1.397   4.494   1.054
 1116SOL     OW 3359   1.209   4.249   0.275
 1116SOL    HW1 3360   1.222   4.165   0.329
 1116SOL    HW2 3361   1.180   4.323   0.335
 1117SOL     OW 3362   0.307   3.937   1.231
 1117SOL    HW1 3363   0.284   3.974   1.321
 1117SOL    HW2 3364   0.277   3.842   1.225
 1118SOL     OW 3365   0.732   4.358   1.064
 1118SOL    HW1 3366   0.791   4.332   0.988
 1118SOL    HW2 3367   0.704   4.454   1.053
 1119SOL     OW 3368   1.728   4.659   1.854
 1119SOL    HW1 3369   1.682   4.652   1.765
 1119SOL    HW2 3370   1.666   4.703   1.920
 1120SOL     OW 3371   0.307   3.787   0.618
 1120SOL    HW1 3372   0.296   3.881   0.651
 1120SOL    HW2 3373   0.302   3.724   0.695
 1121SOL     OW 3374   1.622   4.091   0.374
 1121SOL    HW1 3375   1.624   4.015   0.438
 1121SOL    HW2 3376   1.574   4.168   0.414
 1122SOL     OW 3377   1.023   4.490   0.966
 1122SOL    HW1 3378   1.038   4.511   1.062
 1122SOL    HW2 3379   0.993   4.395   0.957
 1123SOL     OW 3380   1.540   3.998   0.125
 1123SOL    HW1 3381   1.479   3.923   0.148
 1123SOL    HW2 3382   1.562   4.050   0.208
 1124SOL     OW 3383   1.303   4.562   0.042
 1124SOL    HW1 3384   1.337   4.469   0.057
 1124SOL    HW2 3385   1.321   4.589  -0.053
 1125SOL     OW 3386   0.319   4.534   0.949
 1125SOL    HW1 3387   0.412   4.570   0.954
 1125SOL    HW2 3388   0.313   4.449   1.001
 1126SOL     OW 3389   0.339   4.233   1.006
 1126SOL    HW1 3390   0.287   4.150   0.989
 1126SOL    HW2 3391   0.416   4.238   0.942
 1127SOL     OW 3392   1.138   4.104   1.678
 1127SOL    HW1 3393   1.093   4.167   1.742
 1127SOL    HW2 3394   1.231   4.135   1.661
 1128SOL     OW 3395   1.160   3.931   1.477
 1128SOL    HW1 3396   1.160   3.995   1.554
 1128SOL    HW2 3397   1.188   3.979   1.394
 1129SOL     OW 3398   1.002   4.520   1.238
 1129SOL    HW1 3399   1.043   4.488   1.324
 1129SOL    HW2 3400   0.906   4.493   1.235
 1130SOL     OW 3401   0.040   4.268   1.114
 1130SOL    HW1 3402   0.125   4.235   1.073
 1130SOL    HW2 3403   0.053   4.283   1.212
 1131SOL     OW 3404   0.189   4.244   1.722
 1131SOL    HW1 3405   0.248   4.204   1.652
 1131SOL    HW2 3406   0.131   4.315   1.681
 1132SOL     OW 3407   0.815   4.296   0.325
 1132SOL    HW1 3408   0.822   4.207   0.279
 1132SOL    HW2 3409   0.721   4.330   0.317
 1133SOL     OW 3410   1.657   4.328   1.206
 1133SOL    HW1 3411   1.619   4.259   1.268
 1133SOL    HW2 3412   1.739   4.292   1.162
 1134SOL     OW 3413   0.671   4.188   1.269
 1134SOL    HW1 3414   0.637   4.099   1.239
 1134SOL    HW2 3415   0.697   4.242   1.189
 1135SOL     OW 3416   0.473   4.224   0.191
 1135SOL    HW1 3417   0.534   4.304   0.195
 1135SOL    HW2 3418   0.378   4.255   0.198
 1136SOL     OW 3419   1.302   4.579   0.309
 1136SOL    HW1 3420   1.216   4.548   0.351
 1136SOL    HW2 3421   1.298   4.565   0.210
 1137SOL     OW 3422   0.903   3.810   0.133
 1137SOL    HW1 3423   0.954   3.811   0.047
 1137SOL    HW2 3424   0.959   3.768   0.204
 1138SOL     OW 3425   1.726   3.859   0.523
 1138SOL    HW1 3426   1.799   3.842   0.456
 1138SOL    HW2 3427   1.695   3.772   0.561
 1139SOL     OW 3428   1.280   4.651   0.672
 1139SOL    HW1 3429   1.340   4.570   0.674
 1139SOL    HW2 3430   1.320   4.720   0.612
 1140SOL     OW 3431   1.841   3.899   0.963
 1140SOL    HW1 3432   1.880   3.814   0.927
 1140SOL    HW2 3433   1.743   3.901   0.944
 1141SOL     OW 3434   0.263   4.050   0.720
 1141SOL    HW1 3435   0.184   4.101   0.686
 1141SOL    HW2 3436   0.254   4.035   0.818
 1142SOL     OW 3437   1.014   3.960   0.971
 1142SOL    HW1 3438   1.006   3.924   0.878
 1142SOL    HW2 3439   1.012   3.884   1.036
 1143SOL     OW 3440   1.709   4.109   1.381
 1143SOL    HW1 3441   1.782   4.178   1.385
 1143SOL    HW2 3442   1.737   4.034   1.322
 1144SOL     OW 3443   0.105   4.737   1.726
 1144SOL    HW1 3444   0.028   4.704   1.780
 1144SOL    HW2 3445   0.190   4.707   1.768
 1145SOL     OW 3446   0.672   3.927   1.489
 1145SOL    HW1 3447   0.762   3.911   1.449
 1145SOL    HW2 3448   0.680   3.932   1.588
 1146SOL     OW 3449   0.075   4.069   0.033
 1146SOL    HW1 3450  -0.017   4.041   0.004
 1146SOL    HW2 3451   0.106   4.146  -0.023
 1147SOL     OW 3452   1.440   4.580   1.398
 1147SOL    HW1 3453   1.383   4.632   1.335
 1147SOL    HW2 3454   1.536   4.592   1.374
 1148SOL     OW 3455   0.072   3.890   0.318
 1148SOL    HW1 3456   0.055   3.973   0.264
 1148SOL    HW2 3457   0.162   3.853   0.296
 1149SOL     OW 3458   0.613   4.566   1.431
 1149SOL    HW1 3459   0.669   4.647   1.414
 1149SOL    HW2 3460   0.672   4.486   1.434
 1150SOL     OW 3461   0.716   4.289   1.708
 1150SOL    HW1 3462   0.735   4.354   1.782
 1150SOL    HW2 3463   0.776   4.209   1.717
 1151SOL     OW 3464   1.674   4.607   1.254
 1151SOL    HW1 3465   1.647   4.518   1.217
 1151SOL    HW2 3466   1.675   4.675   1.181
 1152SOL     OW 3467   1.225   4.049   0.449
 1152SOL    HW1 3468   1.290   3.975   0.438
 1152SOL    HW2 3469   1.245   4.099   0.533
 1153SOL     OW 3470   0.594   4.469   0.652
 1153SOL    HW1 3471   0.644   4.554   0.633
 1153SOL    HW2 3472   0.506   4.471   0.604
 1154SOL     OW 3473   1.777   4.066   1.642
 1154SOL    HW1 3474   1.760   4.097   1.548
 1154SOL    HW2 3475   1.693   4.029   1.680
 1155SOL     OW 3476   1.730   4.658   1.517
 1155SOL    HW1 3477   1.768   4.749   1.532
 1155SOL    HW2 3478   1.722   4.641   1.418
 1156SOL     OW 3479   1.824   3.916   1.227
 1156SOL    HW1 3480   1.820   3.826   1.271
 1156SOL    HW2 3481   1.827   3.905   1.128
 1157SOL     OW 3482   0.428   4.148   0.520
 1157SOL    HW1 3483   0.458   4.076   0.458
 1157SOL    HW2 3484   0.389   4.108   0.603
 1158SOL     OW 3485   0.317   4.271   1.280
 1158SOL    HW1 3486   0.355   4.212   1.352
 1158SOL    HW2 3487   0.357   4.245   1.192
 1159SOL     OW 3488   1.424   3.938   1.112
 1159SOL    HW1 3489   1.476   3.873   1.167
 1159SOL    HW2 3490   1.375   4.001   1.173
 1160SOL     OW 3491   1.001   3.758   1.154
 1160SOL    HW1 3492   0.938   3.686   1.123
 1160SOL    HW2 3493   1.094   3.722   1.154
 1161SOL     OW 3494   1.352   3.776   0.168
 1161SOL    HW1 3495   1.387   3.735   0.084
 1161SOL    HW2 3496   1.262   3.738   0.188
 1162SOL     OW 3497   1.300   4.177   0.691
 1162SOL    HW1 3498   1.241   4.257   0.695
 1162SOL    HW2 3499   1.315   4.142   0.784
 1163SOL     OW 3500   1.593   3.945   0.882
 1163SOL    HW1 3501   1.509   3.944   0.936
 1163SOL    HW2 3502   1.595   4.028   0.826
 1164SOL     OW 3503   0.230   4.352   1.975
 1164SOL    HW1 3504   0.137   4.350   2.012
 1164SOL    HW2 3505   0.231   4.313   1.883
 1165SOL     OW 3506   0.225   3.999   2.858
 1165SOL    HW1 3507   0.260   3.982   2.950
 1165SOL    HW2 3508   0.137   3.954   2.846
 1166SOL     OW 3509   0.019   4.092   2.509
 1166SOL    HW1 3510  -0.063   4.135   2.548
 1166SOL    HW2 3511  -0.009   4.019   2.446
 1167SOL     OW 3512   1.135   4.427   2.579
 1167SOL    HW1 3513   1.192   4.505   2.554
 1167SOL    HW2 3514   1.075   4.453   2.655
 1168SOL     OW 3515   1.755   4.331   2.093
 1168SOL    HW1 3516   1.743   4.318   1.994
 1168SOL    HW2 3517   1.725   4.250   2.142
 1169SOL     OW 3518   0.850   4.522   3.685
 1169SOL    HW1 3519   0.846   4.598   3.750
 1169SOL    HW2 3520   0.872   4.558   3.594
 1170SOL     OW 3521   0.685   4.736   2.527
 1170SOL    HW1 3522   0.754   4.720   2.597
 1170SOL    HW2 3523   0.612   4.793   2.565
 1171SOL     OW 3524   0.438   4.116   3.361
 1171SOL    HW1 3525   0.520   4.060   3.370
 1171SOL    HW2 3526   0.357   4.058   3.365
 1172SOL     OW 3527   1.603   4.171   2.599
 1172SOL    HW1 3528   1.529   4.217   2.549
 1172SOL    HW2 3529   1.654   4.239   2.652
 1173SOL     OW 3530   1.594   3.838   3.342
 1173SOL    HW1 3531   1.576   3.905   3.270
 1173SOL    HW2 3532   1.591   3.884   3.431
 1174SOL     OW 3533   0.122   4.367   2.425
 1174SOL    HW1 3534   0.077   4.279   2.442
 1174SOL    HW2 3535   0.121   4.421   2.509
 1175SOL     OW 3536   0.113   4.461   3.459
 1175SOL    HW1 3537   0.201   4.448   3.504
 1175SOL    HW2 3538   0.100   4.558   3.437
 1176SOL     OW 3539   0.809   3.728   2.364
 1176SOL    HW1 3540   0.849   3.819   2.355
 1176SOL    HW2 3541   0.709   3.736   2.370
 1177SOL     OW 3542   0.317   3.975   3.663
 1177SOL    HW1 3543   0.388   4.046   3.669
 1177SOL    HW2 3544   0.229   4.014   3.691
 1178SOL     OW 3545   0.598   4.453   2.132
 1178SOL    HW1 3546   0.622   4.522   2.064
 1178SOL    HW2 3547   0.520   4.486   2.186
 1179SOL     OW 3548   1.281   4.069   2.806
 1179SOL    HW1 3549   1.195   4.019   2.793
 1179SOL    HW2 3550   1.343   4.015   2.862
 1180SOL     OW 3551   0.807   4.329   3.327
 1180SOL    HW1 3552   0.760   4.326   3.416
 1180SOL    HW2 3553   0.756   4.274   3.261
 1181SOL     OW 3554   1.394   4.193   3.536
 1181SOL    HW1 3555   1.374   4.236   3.624
 1181SOL    HW2 3556   1.472   4.131   3.545
 1182SOL     OW 3557   0.973   4.614   3.434
 1182SOL    HW1 3558   1.019   4.530   3.405
 1182SOL    HW2 3559   0.917   4.648   3.359
 1183SOL     OW 3560   0.991   4.134   3.104
 1183SOL    HW1 3561   0.914   4.168   3.158
 1183SOL    HW2 3562   0.957   4.083   3.025
 1184SOL     OW 3563   1.041   4.425   2.291
 1184SOL    HW1 3564   1.067   4.421   2.387
 1184SOL    HW2 3565   0.956   4.374   2.277
 1185SOL     OW 3566   0.076   4.535   2.651
 1185SOL    HW1 3567   0.175   4.523   2.660
 1185SOL    HW2 3568   0.052   4.630   2.672
 1186SOL     OW 3569   0.865   4.072   2.057
 1186SOL    HW1 3570   0.924   4.135   2.008
 1186SOL    HW2 3571   0.884   3.978   2.028
 1187SOL     OW 3572   1.719   4.309   3.693
 1187SOL    HW1 3573   1.693   4.398   3.657
 1187SOL    HW2 3574   1.717   4.241   3.620
 1188SOL     OW 3575   0.550   3.920   2.747
 1188SOL    HW1 3576   0.545   3.915   2.847
 1188SOL    HW2 3577   0.552   4.016   2.718
 1189SOL     OW 3578   1.458   4.459   2.590
 1189SOL    HW1 3579   1.453   4.394   2.665
 1189SOL    HW2 3580   1.538   4.518   2.603
 1190SOL     OW 3581   0.202   4.009   3.360
 1190SOL    HW1 3582   0.122   4.069   3.347
 1190SOL    HW2 3583   0.192   3.960   3.446
 1191SOL     OW 3584   1.400   3.831   2.288
 1191SOL    HW1 3585   1.376   3.794   2.198
 1191SOL    HW2 3586   1.499   3.847   2.292
 1192SOL     OW 3587   0.382   4.424   2.342
 1192SOL    HW1 3588   0.427   4.334   2.339
 1192SOL    HW2 3589   0.288   4.413   2.375
 1193SOL     OW 3590   1.547   3.946   3.591
 1193SOL    HW1 3591   1.542   3.983   3.683
 1193SOL    HW2 3592   1.475   3.877   3.579
 1194SOL     OW 3593   0.614   3.846   1.979
 1194SOL    HW1 3594   0.712   3.824   1.986
 1194SOL    HW2 3595   0.583   3.829   1.886
 1195SOL     OW 3596   0.781   3.988   3.611
 1195SOL    HW1 3597   0.848   3.927   3.654
 1195SOL    HW2 3598   0.708   4.007   3.676
 1196SOL     OW 3599   1.351   4.314   3.295
 1196SOL    HW1 3600   1.379   4.271   3.380
 1196SOL    HW2 3601   1.376   4.410   3.296
 1197SOL     OW 3602   0.922   4.227   2.761
 1197SOL    HW1 3603   0.897   4.218   2.665
 1197SOL    HW2 3604   0.970   4.145   2.792
 1198SOL     OW 3605   0.539   3.788   2.374
 1198SOL    HW1 3606   0.458   3.789   2.432
 1198SOL    HW2 3607   0.542   3.871   2.319
 1199SOL     OW 3608   0.297   3.759   2.033
 1199SOL    HW1 3609   0.346   3.843   2.012
 1199SOL    HW2 3610   0.359   3.694   2.078
 1200SOL     OW 3611   0.935   3.960   2.342
 1200SOL    HW1 3612   0.887   4.001   2.264
 1200SOL    HW2 3613   1.034   3.958   2.323
 1201SOL     OW 3614   1.076   4.407   3.326
 1201SOL    HW1 3615   0.996   4.346   3.329
 1201SOL    HW2 3616   1.157   4.354   3.302
 1202SOL     OW 3617   1.032   4.273   1.878
 1202SOL    HW1 3618   0.991   4.355   1.839
 1202SOL    HW2 3619   1.096   4.299   1.951
 1203SOL     OW 3620   0.078   4.280   3.248
 1203SOL    HW1 3621   0.170   4.279   3.207
 1203SOL    HW2 3622   0.072   4.354   3.315
 1204SOL     OW 3623   0.561   3.946   3.009
 1204SOL    HW1 3624   0.599   3.862   3.046
 1204SOL    HW2 3625   0.473   3.965   3.053
 1205SOL     OW 3626   0.866   4.178   2.504
 1205SOL    HW1 3627   0.834   4.250   2.442
 1205SOL    HW2 3628   0.890   4.097   2.451
 1206SOL     OW 3629   1.017   3.763   2.615
 1206SOL    HW1 3630   0.945   3.768   2.546
 1206SOL    HW2 3631   0.993   3.694   2.684
 1207SOL     OW 3632   1.466   4.314   2.854
 1207SOL    HW1 3633   1.436   4.219   2.861
 1207SOL    HW2 3634   1.539   4.330   2.920
 1208SOL     OW 3635   1.857   4.557   2.239
 1208SOL    HW1 3636   1.899   4.493   2.303
 1208SOL    HW2 3637   1.819   4.506   2.161
 1209SOL     OW 3638   1.390   4.299   1.940
 1209SOL    HW1 3639   1.336   4.278   2.021
 1209SOL    HW2 3640   1.481   4.258   1.949
 1210SOL     OW 3641   0.527   3.980   2.190
 1210SOL    HW1 3642   0.554   3.921   2.115
 1210SOL    HW2 3643   0.527   4.075   2.159
 1211SOL     OW 3644   0.915   3.813   3.264
 1211SOL    HW1 3645   0.940   3.793   3.169
 1211SOL    HW2 3646   0.987   3.869   3.306
 1212SOL     OW 3647   0.410   4.537   3.113
 1212SOL    HW1 3648   0.496   4.549   3.163
 1212SOL    HW2 3649   0.368   4.450   3.140
 1213SOL     OW 3650   1.274   4.110   3.124
 1213SOL    HW1 3651   1.295   4.184   3.188
 1213SOL    HW2 3652   1.185   4.127   3.081
 1214SOL     OW 3653   0.566   4.261   2.727
 1214SOL    HW1 3654   0.578   4.327   2.653
 1214SOL    HW2 3655   0.612   4.295   2.810
 1215SOL     OW 3656   1.582   4.363   2.334
 1215SOL    HW1 3657   1.551   4.424   2.407
 1215SOL    HW2 3658   1.632   4.415   2.265
 1216SOL     OW 3659   0.402   4.475   3.460
 1216SOL    HW1 3660   0.470   4.530   3.413
 1216SOL    HW2 3661   0.442   4.387   3.487
 1217SOL     OW 3662   1.587   4.503   3.532
 1217SOL    HW1 3663   1.495   4.541   3.527
 1217SOL    HW2 3664   1.647   4.550   3.467
 1218SOL     OW 3665   1.013   3.829   3.632
 1218SOL    HW1 3666   1.019   3.914   3.580
 1218SOL    HW2 3667   1.045   3.753   3.575
 1219SOL     OW 3668   0.504   3.774   3.602
 1219SOL    HW1 3669   0.462   3.717   3.532
 1219SOL    HW2 3670   0.438   3.843   3.634
 1220SOL     OW 3671   0.573   4.594   2.891
 1220SOL    HW1 3672   0.617   4.683   2.882
 1220SOL    HW2 3673   0.510   4.594   2.968
 1221SOL     OW 3674   1.360   4.586   2.907
 1221SOL    HW1 3675   1.285   4.586   2.841
 1221SOL    HW2 3676   1.397   4.494   2.916
 1222SOL     OW 3677   1.209   4.249   2.137
 1222SOL    HW1 3678   1.222   4.165   2.191
 1222SOL    HW2 3679   1.180   4.323   2.197
 1223SOL     OW 3680   0.307   3.937   3.093
 1223SOL    HW1 3681   0.284   3.974   3.183
 1223SOL    HW2 3682   0.277   3.842   3.087
 1224SOL     OW 3683   0.732   4.358   2.926
 1224SOL    HW1 3684   0.791   4.332   2.850
 1224SOL    HW2 3685   0.704   4.454   2.915
 1225SOL     OW 3686   1.728   4.659   3.716
 1225SOL    HW1 3687   1.682   4.652   3.627
 1225SOL    HW2 3688   1.666   4.703   3.782
 1226SOL     OW 3689   0.307   3.787   2.480
 1226SOL    HW1 3690   0.296   3.881   2.513
 1226SOL    HW2 3691   0.302   3.724   2.557
 1227SOL     OW 3692   1.622   4.091   2.236
 1227SOL    HW1 3693   1.624   4.015   2.300
 1227SOL    HW2 3694   1.574   4.168   2.276
 1228SOL     OW 3695   1.023   4.490   2.828
 1228SOL    HW1 3696   1.038   4.511   2.924
 1228SOL    HW2 3697   0.993   4.395   2.819
 1229SOL     OW 3698   1.540   3.998   1.987
 1229SOL    HW1 3699   1.479   3.923   2.010
 1229SOL    HW2 3700   1.562   4.050   2.070
 1230SOL     OW 3701   1.303   4.562   1.904
 1230SOL    HW1 3702   1.337   4.469   1.919
 1230SOL    HW2 3703   1.321   4.589   1.809
 1231SOL     OW 3704   0.319   4.534   2.811
 1231SOL    HW1 3705   0.412   4.570   2.816
 1231SOL    HW2 3706   0.313   4.449   2.863
 1232SOL     OW 3707   0.339   4.233   2.868
 1232SOL    HW1 3708   0.287   4.150   2.851
 1232SOL    HW2 3709   0.416   4.238   2.804
 1233SOL     OW 3710   1.138   4.104   3.540
 1233SOL    HW1 3711   1.093   4.167   3.604
 1233SOL    HW2 3712   1.231   4.135   3.523
 1234SOL     OW 3713   1.160   3.931   3.339
 1234SOL    HW1 3714   1.160   3.995   3.416
 1234SOL    HW2 3715   1.188   3.979   3.256
 1235SOL     OW 3716   1.002   4.520   3.100
 1235SOL    HW1 3717   1.043   4.488   3.186
 1235SOL    HW2 3718   0.906   4.493   3.097
 1236SOL     OW 3719   0.040   4.268   2.976
 1236SOL    HW1 3720   0.125   4.235   2.935
 1236SOL    HW2 3721   0.053   4.283   3.074
 1237SOL     OW 3722   0.189   4.244   3.584
 1237SOL    HW1 3723   0.248   4.204   3.514
 1237SOL    HW2 3724   0.131   4.315   3.543
 1238SOL     OW 3725   0.815   4.296   2.187
 1238SOL    HW1 3726   0.822   4.207   2.141
 1238SOL    HW2 3727   0.721   4.330   2.179
 1239SOL     OW 3728   1.657   4.328   3.068
 1239SOL    HW1 3729   1.619   4.259   3.130
 1239SOL    HW2 3730   1.739   4.292   3.024
 1240SOL     OW 3731   0.671   4.188   3.131
 1240SOL    HW1 3732   0.637   4.099   3.101
 1240SOL    HW2 3733   0.697   4.242   3.051
 1241SOL     OW 3734   0.473   4.224   2.053
 1241SOL    HW1 3735   0.534   4.304   2.057
 1241SOL    HW2 3736   0.378   4.255   2.060
 1242SOL     OW 3737   1.302   4.579   2.171
 1242SOL    HW1 3738   1.216   4.548   2.213
 1242SOL    HW2 3739   1.298   4.565   2.072
 1243SOL     OW 3740   1.726   3.859   2.385
 1243SOL    HW1 3741   1.799   3.842   2.318
 1243SOL    HW2 3742   1.695   3.772   2.423
 1244SOL     OW 3743   1.280   4.651   2.534
 1244SOL    HW1 3744   1.340   4.570   2.536
 1244SOL    HW2 3745   1.320   4.720   2.474
 1245SOL     OW 3746   1.841   3.899   2.825
 1245SOL    HW1 3747   1.880   3.814   2.789
 1245SOL    HW2 3748   1.743   3.901   2.806
 1246SOL     OW 3749   0.263   4.050   2.582
 1246SOL    HW1 3750   0.184   4.101   2.548
 1246SOL    HW2 3751   0.254   4.035   2.680
 1247SOL     OW 3752   0.916   4.634   2.153
 1247SOL    HW1 3753   0.979   4.672   2.085
 1247SOL    HW2 3754   0.956   4.551   2.192
 1248SOL     OW 3755   1.014   3.960   2.833
 1248SOL    HW1 3756   1.006   3.924   2.740
 1248SOL    HW2 3757   1.012   3.884   2.898
 1249SOL     OW 3758   1.709   4.109   3.243
 1249SOL    HW1 3759   1.782   4.178   3.247
 1249SOL    HW2 3760   1.737   4.034   3.184
 1250SOL     OW 3761   0.105   4.737   3.588
 1250SOL    HW1 3762   0.028   4.704   3.642
 1250SOL    HW2 3763   0.190   4.707   3.630
 1251SOL     OW 3764   0.672   3.927   3.351
 1251SOL    HW1 3765   0.762   3.911   3.311
 1251SOL    HW2 3766   0.680   3.932   3.450
 1252SOL     OW 3767   0.075   4.069   1.895
 1252SOL    HW1 3768  -0.017   4.041   1.866
 1252SOL    HW2 3769   0.106   4.146   1.839
 1253SOL     OW 3770   1.440   4.580   3.260
 1253SOL    HW1 3771   1.383   4.632   3.197
 1253SOL    HW2 3772   1.536   4.592   3.236
 1254SOL     OW 3773   0.072   3.890   2.180
 1254SOL    HW1 3774   0.055   3.973   2.126
 1254SOL    HW2 3775   0.162   3.853   2.158
 1255SOL     OW 3776   0.613   4.566   3.293
 1255SOL    HW1 3777   0.669   4.647   3.276
 1255SOL    HW2 3778   0.672   4.486   3.296
 1256SOL     OW 3779   0.716   4.289   3.570
 1256SOL    HW1 3780   0.735   4.354   3.644
 1256SOL    HW2 3781   0.776   4.209   3.579
 1257SOL     OW 3782   1.674   4.607   3.116
 1257SOL    HW1 3783   1.647   4.518   3.079
 1257SOL    HW2 3784   1.675   4.675   3.043
 1258SOL     OW 3785   1.225   4.049   2.311
 1258SOL    HW1 3786   1.290   3.975   2.300
 1258SOL    HW2 3787   1.245   4.099   2.395
 1259SOL     OW 3788   0.594   4.469   2.514
 1259SOL    HW1 3789   0.644   4.554   2.495
 1259SOL    HW2 3790   0.506   4.471   2.466
 1260SOL     OW 3791   1.777   4.066   3.504
 1260SOL    HW1 3792   1.760   4.097   3.410
 1260SOL    HW2 3793   1.693   4.029   3.542
 1261SOL     OW 3794   1.730   4.658   3.379
 1261SOL    HW1 3795   1.768   4.749   3.394
 1261SOL    HW2 3796   1.722   4.641   3.280
 1262SOL     OW 3797   1.824   3.916   3.089
 1262SOL    HW1 3798   1.820   3.826   3.133
 1262SOL    HW2 3799   1.827   3.905   2.990
 1263SOL     OW 3800   0.428   4.148   2.382
 1263SOL    HW1 3801   0.458   4.076   2.320
 1263SOL    HW2 3802   0.389   4.108   2.465
 1264SOL     OW 3803   0.317   4.271   3.142
 1264SOL    HW1 3804   0.355   4.212   3.214
 1264SOL    HW2 3805   0.357   4.245   3.054
 1265SOL     OW 3806   1.424   3.938   2.974
 1265SOL    HW1 3807   1.476   3.873   3.029
 1265SOL    HW2 3808   1.375   4.001   3.035
 1266SOL     OW 3809   1.001   3.758   3.016
 1266SOL    HW1 3810   0.938   3.686   2.985
 1266SOL    HW2 3811   1.094   3.722   3.016
 1267SOL     OW 3812   1.352   3.776   2.030
 1267SOL    HW1 3813   1.387   3.735   1.946
 1267SOL    HW2 3814   1.262   3.738   2.050
 1268SOL     OW 3815   1.300   4.177   2.553
 1268SOL    HW1 3816   1.241   4.257   2.557
 1268SOL    HW2 3817   1.315   4.142   2.646
 1269SOL     OW 3818   1.593   3.945   2.744
 1269SOL    HW1 3819   1.509   3.944   2.798
 1269SOL    HW2 3820   1.595   4.028   2.688
 1270SOL     OW 3821   0.230   4.352   3.837
 1270SOL    HW1 3822   0.137   4.350   3.874
 1270SOL    HW2 3823   0.231   4.313   3.745
 1271SOL     OW 3824   0.019   4.092   4.371
 1271SOL    HW1 3825  -0.063   4.135   4.410
 1271SOL    HW2 3826  -0.009   4.019   4.308
 1272SOL     OW 3827   1.135   4.427   4.441
 1272SOL    HW1 3828   1.192   4.505   4.416
 1272SOL    HW2 3829   1.075   4.453   4.517
 1273SOL     OW 3830   1.755   4.331   3.955
 1273SOL    HW1 3831   1.743   4.318   3.856
 1273SOL    HW2 3832   1.725   4.250   4.004
 1274SOL     OW 3833   0.685   4.736   4.389
 1274SOL    HW1 3834   0.754   4.720   4.459
 1274SOL    HW2 3835   0.612   4.793   4.427
 1275SOL     OW 3836   1.603   4.171   4.461
 1275SOL    HW1 3837   1.529   4.217   4.411
 1275SOL    HW2 3838   1.654   4.239   4.514
 1276SOL     OW 3839   0.240   4.815   4.610
 1276SOL    HW1 3840   0.254   4.731   4.662
 1276SOL    HW2 3841   0.185   4.879   4.665
 1277SOL     OW 3842   0.122   4.367   4.287
 1277SOL    HW1 3843   0.077   4.279   4.304
 1277SOL    HW2 3844   0.121   4.421   4.371
 1278SOL     OW 3845   0.809   3.728   4.226
 1278SOL    HW1 3846   0.849   3.819   4.217
 1278SOL    HW2 3847   0.709   3.736   4.232
 1279SOL     OW 3848   0.598   4.453   3.994
 1279SOL    HW1 3849   0.622   4.522   3.926
 1279SOL    HW2 3850   0.520   4.486   4.048
 1280SOL     OW 3851   1.281   4.069   4.668
 1280SOL    HW1 3852   1.195   4.019   4.655
 1280SOL    HW2 3853   1.343   4.015   4.724
 1281SOL     OW 3854   1.041   4.425   4.153
 1281SOL    HW1 3855   1.067   4.421   4.249
 1281SOL    HW2 3856   0.956   4.374   4.139
 1282SOL     OW 3857   0.076   4.535   4.513
 1282SOL    HW1 3858   0.175   4.523   4.522
 1282SOL    HW2 3859   0.052   4.630   4.534
 1283SOL     OW 3860   0.865   4.072   3.919
 1283SOL    HW1 3861   0.924   4.135   3.870
 1283SOL    HW2 3862   0.884   3.978   3.890
 1284SOL     OW 3863   0.550   3.920   4.609
 1284SOL    HW1 3864   0.545   3.915   4.709
 1284SOL    HW2 3865   0.552   4.016   4.580
 1285SOL     OW 3866   1.458   4.459   4.452
 1285SOL    HW1 3867   1.453   4.394   4.527
 1285SOL    HW2 3868   1.538   4.518   4.465
 1286SOL     OW 3869   1.400   3.831   4.150
 1286SOL    HW1 3870   1.376   3.794   4.060
 1286SOL    HW2 3871   1.499   3.847   4.154
 1287SOL     OW 3872   0.382   4.424   4.204
 1287SOL    HW1 3873   0.427   4.334   4.201
 1287SOL    HW2 3874   0.288   4.413   4.237
 1288SOL     OW 3875   0.614   3.846   3.841
 1288SOL    HW1 3876   0.712   3.824   3.848
 1288SOL    HW2 3877   0.583   3.829   3.748
 1289SOL     OW 3878   0.539   3.788   4.236
 1289SOL    HW1 3879   0.458   3.789   4.294
 1289SOL    HW2 3880   0.542   3.871   4.181
 1290SOL     OW 3881   0.297   3.759   3.895
 1290SOL    HW1 3882   0.346   3.843   3.874
 1290SOL    HW2 3883   0.359   3.694   3.940
 1291SOL     OW 3884   0.935   3.960   4.204
 1291SOL    HW1 3885   0.887   4.001   4.126
 1291SOL    HW2 3886   1.034   3.958   4.185
 1292SOL     OW 3887   1.032   4.273   3.740
 1292SOL    HW1 3888   0.991   4.355   3.701
 1292SOL    HW2 3889   1.096   4.299   3.813
 1293SOL     OW 3890   0.866   4.178   4.366
 1293SOL    HW1 3891   0.834   4.250   4.304
 1293SOL    HW2 3892   0.890   4.097   4.313
 1294SOL     OW 3893   1.017   3.763   4.477
 1294SOL    HW1 3894   0.945   3.768   4.408
 1294SOL    HW2 3895   0.993   3.694   4.546
 1295SOL     OW 3896   1.857   4.557   4.101
 1295SOL    HW1 3897   1.899   4.493   4.165
 1295SOL    HW2 3898   1.819   4.506   4.023
 1296SOL     OW 3899   1.390   4.299   3.802
 1296SOL    HW1 3900   1.336   4.278   3.883
 1296SOL    HW2 3901   1.481   4.258   3.811
 1297SOL     OW 3902   0.527   3.980   4.052
 1297SOL    HW1 3903   0.554   3.921   3.977
 1297SOL    HW2 3904   0.527   4.075   4.021
 1298SOL     OW 3905   1.111   4.919   4.824
 1298SOL    HW1 3906   1.071   4.963   4.905
 1298SOL    HW2 3907   1.070   4.956   4.741
 1299SOL     OW 3908   0.566   4.261   4.589
 1299SOL    HW1 3909   0.578   4.327   4.515
 1299SOL    HW2 3910   0.612   4.295   4.672
 1300SOL     OW 3911   1.582   4.363   4.196
 1300SOL    HW1 3912   1.551   4.424   4.269
 1300SOL    HW2 3913   1.632   4.415   4.127
 1301SOL     OW 3914   1.209   4.249   3.999
 1301SOL    HW1 3915   1.222   4.165   4.053
 1301SOL    HW2 3916   1.180   4.323   4.059
 1302SOL     OW 3917   0.732   4.358   4.788
 1302SOL    HW1 3918   0.791   4.332   4.712
 1302SOL    HW2 3919   0.704   4.454   4.777
 1303SOL     OW 3920   0.307   3.787   4.342
 1303SOL    HW1 3921   0.296   3.881   4.375
 1303SOL    HW2 3922   0.302   3.724   4.419
 1304SOL     OW 3923   1.622   4.091   4.098
 1304SOL    HW1 3924   1.624   4.015   4.162
 1304SOL    HW2 3925   1.574   4.168   4.138
 1305SOL     OW 3926   1.540   3.998   3.849
 1305SOL    HW1 3927   1.479   3.923   3.872
 1305SOL    HW2 3928   1.562   4.050   3.932
 1306SOL     OW 3929   1.303   4.562   3.766
 1306SOL    HW1 3930   1.337   4.469   3.781
 1306SOL    HW2 3931   1.321   4.589   3.671
 1307SOL     OW 3932   0.815   4.296   4.049
 1307SOL    HW1 3933   0.822   4.207   4.003
 1307SOL    HW2 3934   0.721   4.330   4.041
 1308SOL     OW 3935   0.473   4.224   3.915
 1308SOL    HW1 3936   0.534   4.304   3.919
 1308SOL    HW2 3937   0.378   4.255   3.922
 1309SOL     OW 3938   1.302   4.579   4.033
 1309SOL    HW1 3939   1.216   4.548   4.075
 1309SOL    HW2 3940   1.298   4.565   3.934
 1310SOL     OW 3941   1.726   3.859   4.247
 1310SOL    HW1 3942   1.799   3.842   4.180
 1310SOL    HW2 3943   1.695   3.772   4.285
 1311SOL     OW 3944   1.280   4.651   4.396
 1311SOL    HW1 3945   1.340   4.570   4.398
 1311SOL    HW2 3946   1.320   4.720   4.336
 1312SOL     OW 3947   1.841   3.899   4.687
 1312SOL    HW1 3948   1.880   3.814   4.651
 1312SOL    HW2 3949   1.743   3.901   4.668
 1313SOL     OW 3950   0.263   4.050   4.444
 1313SOL    HW1 3951   0.184   4.101   4.410
 1313SOL    HW2 3952   0.254   4.035   4.542
 1314SOL     OW 3953   0.916   4.634   4.015
 1314SOL    HW1 3954   0.979   4.672   3.947
 1314SOL    HW2 3955   0.956   4.551   4.054
 1315SOL     OW 3956   0.075   4.069   3.757
 1315SOL    HW1 3957  -0.017   4.041   3.728
 1315SOL    HW2 3958   0.106   4.146   3.701
 1316SOL     OW 3959   0.072   3.890   4.042
 1316SOL    HW1 3960   0.055   3.973   3.988
 1316SOL    HW2 3961   0.162   3.853   4.020
 1317SOL     OW 3962   1.674   4.607   4.978
 1317SOL    HW1 3963   1.647   4.518   4.941
 1317SOL    HW2 3964   1.675   4.675   4.905
 1318SOL     OW 3965   1.225   4.049   4.173
 1318SOL    HW1 3966   1.290   3.975   4.162
 1318SOL    HW2 3967   1.245   4.099   4.257
 1319SOL     OW 3968   0.594   4.469   4.376
 1319SOL    HW1 3969   0.644   4.554   4.357
 1319SOL    HW2 3970   0.506   4.471   4.328
 1320SOL     OW 3971   0.428   4.148   4.244
 1320SOL    HW1 3972   0.458   4.076   4.182
 1320SOL    HW2 3973   0.389   4.108   4.327
 1321SOL     OW 3974   1.352   3.776   3.892
 1321SOL    HW1 3975   1.387   3.735   3.808
 1321SOL    HW2 3976   1.262   3.738   3.912
 1322SOL     OW 3977   1.300   4.177   4.415
 1322SOL    HW1 3978   1.241   4.257   4.419
 1322SOL    HW2 3979   1.315   4.142   4.508
 1323SOL     OW 3980   1.593   3.945   4.606
 1323SOL    HW1 3981   1.509   3.944   4.660
 1323SOL    HW2 3982   1.595   4.028   4.550
 1324SOL     OW 3983   2.092   0.628   0.113
 1324SOL    HW1 3984   1.999   0.626   0.150
 1324SOL    HW2 3985   2.093   0.589   0.021
 1325SOL     OW 3986   2.087   0.275   0.996
 1325SOL    HW1 3987   2.122   0.258   1.088
 1325SOL    HW2 3988   1.999   0.230   0.984
 1326SOL     OW 3989   1.881   0.368   0.647
 1326SOL    HW1 3990   1.799   0.411   0.686
 1326SOL    HW2 3991   1.853   0.295   0.584
 1327SOL     OW 3992   2.431   1.275   1.165
 1327SOL    HW1 3993   2.338   1.268   1.128
 1327SOL    HW2 3994   2.442   1.364   1.209
 1328SOL     OW 3995   3.417   1.511   0.703
 1328SOL    HW1 3996   3.360   1.495   0.784
 1328SOL    HW2 3997   3.358   1.521   0.623
 1329SOL     OW 3998   2.997   0.703   0.717
 1329SOL    HW1 3999   3.054   0.781   0.692
 1329SOL    HW2 4000   2.937   0.729   0.793
 1330SOL     OW 4001   3.617   0.607   0.231
 1330SOL    HW1 4002   3.605   0.594   0.132
 1330SOL    HW2 4003   3.587   0.526   0.280
 1331SOL     OW 4004   2.630   1.144   1.023
 1331SOL    HW1 4005   2.552   1.161   1.083
 1331SOL    HW2 4006   2.664   1.231   0.987
 1332SOL     OW 4007   2.712   0.798   1.823
 1332SOL    HW1 4008   2.708   0.874   1.888
 1332SOL    HW2 4009   2.734   0.834   1.732
 1333SOL     OW 4010   2.547   1.012   0.665
 1333SOL    HW1 4011   2.616   0.996   0.735
 1333SOL    HW2 4012   2.474   1.069   0.703
 1334SOL     OW 4013   2.548   1.161   1.803
 1334SOL    HW1 4014   2.608   1.240   1.817
 1334SOL    HW2 4015   2.462   1.192   1.762
 1335SOL     OW 4016   2.197   1.435   1.061
 1335SOL    HW1 4017   2.119   1.404   1.008
 1335SOL    HW2 4018   2.255   1.493   1.004
 1336SOL     OW 4019   3.322   1.505   1.339
 1336SOL    HW1 4020   3.346   1.599   1.365
 1336SOL    HW2 4021   3.306   1.451   1.421
 1337SOL     OW 4022   2.300   0.392   1.499
 1337SOL    HW1 4023   2.382   0.336   1.508
 1337SOL    HW2 4024   2.219   0.334   1.503
 1338SOL     OW 4025   3.465   0.447   0.737
 1338SOL    HW1 4026   3.391   0.493   0.687
 1338SOL    HW2 4027   3.516   0.515   0.790
 1339SOL     OW 4028   2.093   1.713   0.483
 1339SOL    HW1 4029   2.127   1.790   0.537
 1339SOL    HW2 4030   2.137   1.713   0.393
 1340SOL     OW 4031   2.989   1.341   1.690
 1340SOL    HW1 4032   3.036   1.341   1.778
 1340SOL    HW2 4033   2.941   1.254   1.679
 1341SOL     OW 4034   2.092   1.434   0.538
 1341SOL    HW1 4035   2.066   1.530   0.538
 1341SOL    HW2 4036   2.021   1.380   0.583
 1342SOL     OW 4037   2.102   1.091   0.886
 1342SOL    HW1 4038   2.116   1.007   0.938
 1342SOL    HW2 4039   2.047   1.155   0.941
 1343SOL     OW 4040   2.482   1.786   1.439
 1343SOL    HW1 4041   2.390   1.769   1.474
 1343SOL    HW2 4042   2.510   1.878   1.465
 1344SOL     OW 4043   2.468   0.964   0.123
 1344SOL    HW1 4044   2.475   1.048   0.069
 1344SOL    HW2 4045   2.514   0.977   0.211
 1345SOL     OW 4046   3.456   0.114   1.480
 1345SOL    HW1 4047   3.438   0.181   1.408
 1345SOL    HW2 4048   3.453   0.160   1.569
 1346SOL     OW 4049   1.984   0.643   0.563
 1346SOL    HW1 4050   1.939   0.555   0.580
 1346SOL    HW2 4051   1.983   0.697   0.647
 1347SOL     OW 4052   3.704   1.767   0.359
 1347SOL    HW1 4053   3.758   1.738   0.439
 1347SOL    HW2 4054   3.734   1.857   0.330
 1348SOL     OW 4055   1.889   1.596   0.117
 1348SOL    HW1 4056   1.870   1.500   0.138
 1348SOL    HW2 4057   1.856   1.654   0.192
 1349SOL     OW 4058   3.551   0.922   0.612
 1349SOL    HW1 4059   3.646   0.893   0.620
 1349SOL    HW2 4060   3.543   0.987   0.537
 1350SOL     OW 4061   3.503   1.108   0.432
 1350SOL    HW1 4062   3.589   1.110   0.380
 1350SOL    HW2 4063   3.517   1.155   0.520
 1351SOL     OW 4064   1.975   0.737   1.597
 1351SOL    HW1 4065   2.063   0.724   1.642
 1351SOL    HW2 4066   1.962   0.834   1.575
 1352SOL     OW 4067   2.475   1.365   0.726
 1352SOL    HW1 4068   2.426   1.278   0.735
 1352SOL    HW2 4069   2.452   1.408   0.639
 1353SOL     OW 4070   3.155   1.228   1.423
 1353SOL    HW1 4071   3.192   1.155   1.365
 1353SOL    HW2 4072   3.207   1.233   1.508
 1354SOL     OW 4073   2.671   0.004   0.502
 1354SOL    HW1 4074   2.711   0.095   0.493
 1354SOL    HW2 4075   2.571   0.012   0.508
 1355SOL     OW 4076   2.059   0.976   1.264
 1355SOL    HW1 4077   2.148   0.931   1.250
 1355SOL    HW2 4078   1.986   0.911   1.245
 1356SOL     OW 4079   3.387   0.999   0.190
 1356SOL    HW1 4080   3.324   0.923   0.203
 1356SOL    HW2 4081   3.435   1.017   0.276
 1357SOL     OW 4082   3.049   1.792   1.616
 1357SOL    HW1 4083   3.073   1.852   1.540
 1357SOL    HW2 4084   3.056   1.697   1.586
 1358SOL     OW 4085   2.179   0.251   1.801
 1358SOL    HW1 4086   2.250   0.322   1.807
 1358SOL    HW2 4087   2.091   0.290   1.829
 1359SOL     OW 4088   3.328   1.417   0.953
 1359SOL    HW1 4089   3.269   1.423   1.033
 1359SOL    HW2 4090   3.313   1.329   0.907
 1360SOL     OW 4091   3.529   1.714   0.572
 1360SOL    HW1 4092   3.488   1.691   0.484
 1360SOL    HW2 4093   3.511   1.640   0.637
 1361SOL     OW 4094   2.460   0.729   0.270
 1361SOL    HW1 4095   2.484   0.798   0.202
 1361SOL    HW2 4096   2.382   0.762   0.324
 1362SOL     OW 4097   3.143   0.345   0.944
 1362SOL    HW1 4098   3.057   0.295   0.931
 1362SOL    HW2 4099   3.205   0.291   1.000
 1363SOL     OW 4100   3.438   1.662   0.307
 1363SOL    HW1 4101   3.527   1.708   0.310
 1363SOL    HW2 4102   3.417   1.638   0.212
 1364SOL     OW 4103   2.669   0.605   1.465
 1364SOL    HW1 4104   2.622   0.602   1.554
 1364SOL    HW2 4105   2.618   0.550   1.399
 1365SOL     OW 4106   3.256   0.469   1.674
 1365SOL    HW1 4107   3.236   0.512   1.762
 1365SOL    HW2 4108   3.334   0.407   1.683
 1366SOL     OW 4109   2.835   0.890   1.572
 1366SOL    HW1 4110   2.881   0.806   1.543
 1366SOL    HW2 4111   2.779   0.924   1.497
 1367SOL     OW 4112   2.853   0.410   1.242
 1367SOL    HW1 4113   2.776   0.444   1.296
 1367SOL    HW2 4114   2.819   0.359   1.163
 1368SOL     OW 4115   2.903   0.701   0.429
 1368SOL    HW1 4116   2.929   0.697   0.525
 1368SOL    HW2 4117   2.818   0.650   0.415
 1369SOL     OW 4118   1.938   0.811   0.789
 1369SOL    HW1 4119   2.037   0.799   0.798
 1369SOL    HW2 4120   1.914   0.906   0.810
 1370SOL     OW 4121   1.992   1.821   1.571
 1370SOL    HW1 4122   1.982   1.806   1.670
 1370SOL    HW2 4123   1.906   1.857   1.535
 1371SOL     OW 4124   2.727   0.348   0.195
 1371SOL    HW1 4125   2.786   0.411   0.146
 1371SOL    HW2 4126   2.746   0.254   0.166
 1372SOL     OW 4127   3.581   0.585   1.831
 1372SOL    HW1 4128   3.555   0.674   1.795
 1372SOL    HW2 4129   3.579   0.517   1.758
 1373SOL     OW 4130   3.224   1.144   0.545
 1373SOL    HW1 4131   3.307   1.115   0.497
 1373SOL    HW2 4132   3.175   1.211   0.489
 1374SOL     OW 4133   2.412   0.196   0.885
 1374SOL    HW1 4134   2.407   0.191   0.985
 1374SOL    HW2 4135   2.414   0.292   0.856
 1375SOL     OW 4136   2.870   1.456   0.477
 1375SOL    HW1 4137   2.824   1.528   0.425
 1375SOL    HW2 4138   2.866   1.476   0.575
 1376SOL     OW 4139   2.213   1.801   0.853
 1376SOL    HW1 4140   2.263   1.715   0.859
 1376SOL    HW2 4141   2.278   1.878   0.850
 1377SOL     OW 4142   3.657   1.066   0.873
 1377SOL    HW1 4143   3.595   1.051   0.797
 1377SOL    HW2 4144   3.605   1.077   0.958
 1378SOL     OW 4145   3.089   1.550   1.506
 1378SOL    HW1 4146   3.095   1.473   1.570
 1378SOL    HW2 4147   3.037   1.524   1.426
 1379SOL     OW 4148   2.183   0.943   0.242
 1379SOL    HW1 4149   2.265   0.982   0.200
 1379SOL    HW2 4150   2.156   0.861   0.193
 1380SOL     OW 4151   3.320   0.735   0.728
 1380SOL    HW1 4152   3.315   0.670   0.803
 1380SOL    HW2 4153   3.400   0.794   0.741
 1381SOL     OW 4154   2.323   1.266   1.727
 1381SOL    HW1 4155   2.273   1.267   1.641
 1381SOL    HW2 4156   2.260   1.248   1.803
 1382SOL     OW 4157   2.973   1.776   0.237
 1382SOL    HW1 4158   2.913   1.714   0.287
 1382SOL    HW2 4159   3.004   1.732   0.152
 1383SOL     OW 4160   2.064   0.285   1.498
 1383SOL    HW1 4161   1.984   0.345   1.485
 1383SOL    HW2 4162   2.054   0.236   1.584
 1384SOL     OW 4163   3.494   1.377   0.081
 1384SOL    HW1 4164   3.462   1.471   0.071
 1384SOL    HW2 4165   3.418   1.314   0.069
 1385SOL     OW 4166   2.326   1.743   0.323
 1385SOL    HW1 4167   2.359   1.782   0.409
 1385SOL    HW2 4168   2.402   1.736   0.258
 1386SOL     OW 4169   3.262   0.107   0.426
 1386SOL    HW1 4170   3.238   0.070   0.336
 1386SOL    HW2 4171   3.361   0.123   0.430
 1387SOL     OW 4172   2.111   1.785   1.241
 1387SOL    HW1 4173   2.168   1.720   1.291
 1387SOL    HW2 4174   2.095   1.752   1.148
 1388SOL     OW 4175   2.802   1.698   0.904
 1388SOL    HW1 4176   2.882   1.641   0.925
 1388SOL    HW2 4177   2.753   1.658   0.827
 1389SOL     OW 4178   2.244   0.700   0.480
 1389SOL    HW1 4179   2.289   0.610   0.477
 1389SOL    HW2 4180   2.150   0.689   0.513
 1390SOL     OW 4181   3.409   0.222   1.729
 1390SOL    HW1 4182   3.404   0.259   1.821
 1390SOL    HW2 4183   3.337   0.153   1.717
 1391SOL     OW 4184   2.476   0.122   0.117
 1391SOL    HW1 4185   2.574   0.100   0.124
 1391SOL    HW2 4186   2.445   0.105   0.024
 1392SOL     OW 4187   2.643   0.264   1.749
 1392SOL    HW1 4188   2.710   0.203   1.792
 1392SOL    HW2 4189   2.570   0.283   1.814
 1393SOL     OW 4190   2.750   1.514   1.195
 1393SOL    HW1 4191   2.727   1.489   1.101
 1393SOL    HW2 4192   2.811   1.445   1.234
 1394SOL     OW 4193   3.213   0.590   1.433
 1394SOL    HW1 4194   3.241   0.547   1.518
 1394SOL    HW2 4195   3.238   0.686   1.434
 1395SOL     OW 4196   2.665   1.402   0.924
 1395SOL    HW1 4197   2.755   1.416   0.882
 1395SOL    HW2 4198   2.594   1.404   0.853
 1396SOL     OW 4199   2.784   0.503   0.899
 1396SOL    HW1 4200   2.759   0.494   0.803
 1396SOL    HW2 4201   2.832   0.421   0.930
 1397SOL     OW 4202   2.401   0.064   0.512
 1397SOL    HW1 4203   2.320   0.065   0.570
 1397SOL    HW2 4204   2.404   0.147   0.457
 1398SOL     OW 4205   3.296   1.188   0.041
 1398SOL    HW1 4206   3.328   1.112   0.098
 1398SOL    HW2 4207   3.204   1.215   0.071
 1399SOL     OW 4208   2.159   0.035   0.171
 1399SOL    HW1 4209   2.208   0.119   0.150
 1399SOL    HW2 4210   2.221  -0.030   0.216
 1400SOL     OW 4211   2.797   0.236   0.480
 1400SOL    HW1 4212   2.749   0.277   0.402
 1400SOL    HW2 4213   2.896   0.234   0.461
 1401SOL     OW 4214   2.938   0.683   1.464
 1401SOL    HW1 4215   2.858   0.622   1.467
 1401SOL    HW2 4216   3.019   0.630   1.440
 1402SOL     OW 4217   3.089   1.570   0.793
 1402SOL    HW1 4218   3.110   1.644   0.728
 1402SOL    HW2 4219   3.157   1.570   0.866
 1403SOL     OW 4220   2.321   1.152   0.741
 1403SOL    HW1 4221   2.250   1.125   0.806
 1403SOL    HW2 4222   2.295   1.124   0.648
 1404SOL     OW 4223   3.133   1.797   0.591
 1404SOL    HW1 4224   3.177   1.861   0.527
 1404SOL    HW2 4225   3.083   1.849   0.661
 1405SOL     OW 4226   2.894   0.549   0.016
 1405SOL    HW1 4227   2.853   0.631  -0.023
 1405SOL    HW2 4228   2.958   0.575   0.089
 1406SOL     OW 4229   1.940   0.556   1.386
 1406SOL    HW1 4230   2.032   0.555   1.345
 1406SOL    HW2 4231   1.934   0.630   1.453
 1407SOL     OW 4232   2.423   0.222   1.147
 1407SOL    HW1 4233   2.461   0.138   1.184
 1407SOL    HW2 4234   2.335   0.241   1.191
 1408SOL     OW 4235   2.728   0.454   0.642
 1408SOL    HW1 4236   2.696   0.526   0.580
 1408SOL    HW2 4237   2.752   0.373   0.589
 1409SOL     OW 4238   2.879   0.039   0.753
 1409SOL    HW1 4239   2.807   0.044   0.684
 1409SOL    HW2 4240   2.855  -0.030   0.822
 1410SOL     OW 4241   3.291   1.173   0.867
 1410SOL    HW1 4242   3.236   1.089   0.860
 1410SOL    HW2 4243   3.317   1.202   0.775
 1411SOL     OW 4244   3.328   0.590   0.992
 1411SOL    HW1 4245   3.298   0.495   0.999
 1411SOL    HW2 4246   3.401   0.606   1.058
 1412SOL     OW 4247   3.719   0.833   0.377
 1412SOL    HW1 4248   3.761   0.769   0.441
 1412SOL    HW2 4249   3.681   0.782   0.299
 1413SOL     OW 4250   2.350   1.385   0.174
 1413SOL    HW1 4251   2.263   1.370   0.221
 1413SOL    HW2 4252   2.333   1.411   0.079
 1414SOL     OW 4253   3.526   1.280   0.657
 1414SOL    HW1 4254   3.625   1.288   0.671
 1414SOL    HW2 4255   3.481   1.364   0.688
 1415SOL     OW 4256   3.252   0.575   0.078
 1415SOL    HW1 4257   3.198   0.554   0.159
 1415SOL    HW2 4258   3.343   0.534   0.087
 1416SOL     OW 4259   2.389   0.256   0.328
 1416SOL    HW1 4260   2.416   0.197   0.253
 1416SOL    HW2 4261   2.389   0.351   0.297
 1417SOL     OW 4262   3.616   1.223   1.588
 1417SOL    HW1 4263   3.707   1.184   1.575
 1417SOL    HW2 4264   3.624   1.319   1.612
 1418SOL     OW 4265   2.926   1.347   1.340
 1418SOL    HW1 4266   2.846   1.324   1.395
 1418SOL    HW2 4267   3.009   1.321   1.389
 1419SOL     OW 4268   3.454   1.629   1.625
 1419SOL    HW1 4269   3.481   1.663   1.535
 1419SOL    HW2 4270   3.533   1.591   1.671
 1420SOL     OW 4271   2.973   1.195   1.100
 1420SOL    HW1 4272   2.933   1.239   1.181
 1420SOL    HW2 4273   2.932   1.232   1.017
 1421SOL     OW 4274   3.500   1.099   1.079
 1421SOL    HW1 4275   3.505   1.180   1.138
 1421SOL    HW2 4276   3.414   1.101   1.028
 1422SOL     OW 4277   2.777   0.089   1.402
 1422SOL    HW1 4278   2.802   0.069   1.307
 1422SOL    HW2 4279   2.849   0.145   1.444
 1423SOL     OW 4280   2.842   1.116   1.719
 1423SOL    HW1 4281   2.743   1.122   1.729
 1423SOL    HW2 4282   2.865   1.036   1.663
 1424SOL     OW 4283   2.567   1.050   0.368
 1424SOL    HW1 4284   2.553   1.057   0.467
 1424SOL    HW2 4285   2.651   0.999   0.350
 1425SOL     OW 4286   2.272   0.813   1.251
 1425SOL    HW1 4287   2.358   0.825   1.301
 1425SOL    HW2 4288   2.230   0.726   1.278
 1426SOL     OW 4289   3.136   0.386   1.262
 1426SOL    HW1 4290   3.157   0.460   1.326
 1426SOL    HW2 4291   3.047   0.403   1.219
 1427SOL     OW 4292   1.926   1.564   1.331
 1427SOL    HW1 4293   1.880   1.646   1.297
 1427SOL    HW2 4294   2.024   1.583   1.340
 1428SOL     OW 4295   2.229   1.100   0.501
 1428SOL    HW1 4296   2.222   1.183   0.445
 1428SOL    HW2 4297   2.233   1.020   0.441
 1429SOL     OW 4298   2.428   0.537   0.865
 1429SOL    HW1 4299   2.440   0.603   0.791
 1429SOL    HW2 4300   2.474   0.571   0.948
 1430SOL     OW 4301   3.114   1.348   0.388
 1430SOL    HW1 4302   3.164   1.425   0.428
 1430SOL    HW2 4303   3.019   1.350   0.420
 1431SOL     OW 4304   3.134   1.445   1.142
 1431SOL    HW1 4305   3.181   1.458   1.229
 1431SOL    HW2 4306   3.068   1.371   1.151
 1432SOL     OW 4307   3.444   0.639   0.472
 1432SOL    HW1 4308   3.413   0.700   0.545
 1432SOL    HW2 4309   3.494   0.691   0.403
 1433SOL     OW 4310   2.216   1.510   1.329
 1433SOL    HW1 4311   2.195   1.466   1.242
 1433SOL    HW2 4312   2.313   1.536   1.332
 1434SOL     OW 4313   2.264   0.751   1.598
 1434SOL    HW1 4314   2.332   0.806   1.551
 1434SOL    HW2 4315   2.304   0.663   1.625
 1435SOL     OW 4316   3.449   0.779   1.670
 1435SOL    HW1 4317   3.357   0.817   1.665
 1435SOL    HW2 4318   3.509   0.826   1.605
 1436SOL     OW 4319   2.875   0.105   1.770
 1436SOL    HW1 4320   2.881   0.190   1.718
 1436SOL    HW2 4321   2.907   0.029   1.713
 1437SOL     OW 4322   2.366   0.050   1.740
 1437SOL    HW1 4323   2.324  -0.007   1.670
 1437SOL    HW2 4324   2.300   0.119   1.772
 1438SOL     OW 4325   2.435   0.870   1.029
 1438SOL    HW1 4326   2.479   0.959   1.020
 1438SOL    HW2 4327   2.372   0.870   1.106
 1439SOL     OW 4328   3.222   0.862   1.045
 1439SOL    HW1 4329   3.147   0.862   0.979
 1439SOL    HW2 4330   3.259   0.770   1.054
 1440SOL     OW 4331   3.071   0.525   0.275
 1440SOL    HW1 4332   3.084   0.441   0.329
 1440SOL    HW2 4333   3.042   0.599   0.335
 1441SOL     OW 4334   2.169   0.213   1.231
 1441SOL    HW1 4335   2.146   0.250   1.321
 1441SOL    HW2 4336   2.139   0.118   1.225
 1442SOL     OW 4337   1.899   1.310   1.282
 1442SOL    HW1 4338   1.952   1.261   1.350
 1442SOL    HW2 4339   1.921   1.408   1.287
 1443SOL     OW 4340   2.594   0.634   1.064
 1443SOL    HW1 4341   2.653   0.608   0.988
 1443SOL    HW2 4342   2.566   0.730   1.053
 1444SOL     OW 4343   3.590   0.935   1.854
 1444SOL    HW1 4344   3.544   0.928   1.765
 1444SOL    HW2 4345   3.528   0.979   1.920
 1445SOL     OW 4346   2.169   0.063   0.618
 1445SOL    HW1 4347   2.158   0.157   0.651
 1445SOL    HW2 4348   2.164   0.000   0.695
 1446SOL     OW 4349   3.484   0.367   0.374
 1446SOL    HW1 4350   3.486   0.291   0.438
 1446SOL    HW2 4351   3.436   0.444   0.414
 1447SOL     OW 4352   2.885   0.766   0.966
 1447SOL    HW1 4353   2.900   0.787   1.062
 1447SOL    HW2 4354   2.855   0.671   0.957
 1448SOL     OW 4355   2.842   1.573   1.700
 1448SOL    HW1 4356   2.822   1.617   1.612
 1448SOL    HW2 4357   2.881   1.482   1.684
 1449SOL     OW 4358   3.721   1.518   1.605
 1449SOL    HW1 4359   3.735   1.545   1.510
 1449SOL    HW2 4360   3.804   1.540   1.658
 1450SOL     OW 4361   2.212   0.898   1.804
 1450SOL    HW1 4362   2.288   0.942   1.852
 1450SOL    HW2 4363   2.247   0.851   1.722
 1451SOL     OW 4364   3.402   0.274   0.125
 1451SOL    HW1 4365   3.341   0.199   0.148
 1451SOL    HW2 4366   3.424   0.326   0.208
 1452SOL     OW 4367   3.165   0.838   0.042
 1452SOL    HW1 4368   3.199   0.745   0.057
 1452SOL    HW2 4369   3.183   0.865  -0.053
 1453SOL     OW 4370   2.930   1.333   0.849
 1453SOL    HW1 4371   2.937   1.249   0.794
 1453SOL    HW2 4372   2.992   1.402   0.813
 1454SOL     OW 4373   2.181   0.810   0.949
 1454SOL    HW1 4374   2.274   0.846   0.954
 1454SOL    HW2 4375   2.175   0.725   1.001
 1455SOL     OW 4376   2.201   0.509   1.006
 1455SOL    HW1 4377   2.149   0.426   0.989
 1455SOL    HW2 4378   2.278   0.514   0.942
 1456SOL     OW 4379   3.000   0.380   1.678
 1456SOL    HW1 4380   2.955   0.443   1.742
 1456SOL    HW2 4381   3.093   0.411   1.661
 1457SOL     OW 4382   3.022   0.207   1.477
 1457SOL    HW1 4383   3.022   0.271   1.554
 1457SOL    HW2 4384   3.050   0.255   1.394
 1458SOL     OW 4385   1.870   1.326   0.200
 1458SOL    HW1 4386   1.777   1.347   0.169
 1458SOL    HW2 4387   1.880   1.227   0.213
 1459SOL     OW 4388   1.950   1.801   0.927
 1459SOL    HW1 4389   1.908   1.715   0.900
 1459SOL    HW2 4390   2.044   1.804   0.893
 1460SOL     OW 4391   2.366   1.568   0.910
 1460SOL    HW1 4392   2.432   1.642   0.919
 1460SOL    HW2 4393   2.410   1.489   0.868
 1461SOL     OW 4394   2.864   0.796   1.238
 1461SOL    HW1 4395   2.905   0.764   1.324
 1461SOL    HW2 4396   2.768   0.769   1.235
 1462SOL     OW 4397   1.902   0.544   1.114
 1462SOL    HW1 4398   1.987   0.511   1.073
 1462SOL    HW2 4399   1.915   0.559   1.212
 1463SOL     OW 4400   2.051   0.520   1.722
 1463SOL    HW1 4401   2.110   0.480   1.652
 1463SOL    HW2 4402   1.993   0.591   1.681
 1464SOL     OW 4403   3.231   0.950   1.660
 1464SOL    HW1 4404   3.270   1.039   1.680
 1464SOL    HW2 4405   3.241   0.930   1.563
 1465SOL     OW 4406   2.677   0.572   0.325
 1465SOL    HW1 4407   2.684   0.483   0.279
 1465SOL    HW2 4408   2.583   0.606   0.317
 1466SOL     OW 4409   3.519   0.604   1.206
 1466SOL    HW1 4410   3.481   0.535   1.268
 1466SOL    HW2 4411   3.601   0.568   1.162
 1467SOL     OW 4412   2.114   1.564   1.744
 1467SOL    HW1 4413   2.084   1.621   1.820
 1467SOL    HW2 4414   2.107   1.467   1.770
 1468SOL     OW 4415   2.533   0.464   1.269
 1468SOL    HW1 4416   2.499   0.375   1.239
 1468SOL    HW2 4417   2.559   0.518   1.189
 1469SOL     OW 4418   2.792   1.678   1.465
 1469SOL    HW1 4419   2.768   1.660   1.370
 1469SOL    HW2 4420   2.822   1.772   1.475
 1470SOL     OW 4421   2.335   0.500   0.191
 1470SOL    HW1 4422   2.396   0.580   0.195
 1470SOL    HW2 4423   2.240   0.531   0.198
 1471SOL     OW 4424   2.021   1.137   1.466
 1471SOL    HW1 4425   2.043   1.076   1.542
 1471SOL    HW2 4426   2.031   1.088   1.380
 1472SOL     OW 4427   3.209   1.059   1.234
 1472SOL    HW1 4428   3.233   0.996   1.160
 1472SOL    HW2 4429   3.119   1.099   1.216
 1473SOL     OW 4430   3.164   0.855   0.309
 1473SOL    HW1 4431   3.078   0.824   0.351
 1473SOL    HW2 4432   3.160   0.841   0.210
 1474SOL     OW 4433   3.621   1.747   1.154
 1474SOL    HW1 4434   3.682   1.777   1.081
 1474SOL    HW2 4435   3.583   1.658   1.132
 1475SOL     OW 4436   3.114   1.731   1.128
 1475SOL    HW1 4437   3.198   1.736   1.074
 1475SOL    HW2 4438   3.091   1.635   1.146
 1476SOL     OW 4439   1.945   1.258   1.022
 1476SOL    HW1 4440   1.940   1.257   1.122
 1476SOL    HW2 4441   1.862   1.217   0.984
 1477SOL     OW 4442   2.550   1.662   1.716
 1477SOL    HW1 4443   2.494   1.743   1.725
 1477SOL    HW2 4444   2.602   1.666   1.630
 1478SOL     OW 4445   2.765   0.086   0.133
 1478SOL    HW1 4446   2.816   0.087   0.047
 1478SOL    HW2 4447   2.821   0.044   0.204
 1479SOL     OW 4448   3.588   0.135   0.523
 1479SOL    HW1 4449   3.661   0.118   0.456
 1479SOL    HW2 4450   3.557   0.048   0.561
 1480SOL     OW 4451   3.250   1.573   0.477
 1480SOL    HW1 4452   3.317   1.585   0.403
 1480SOL    HW2 4453   3.210   1.662   0.500
 1481SOL     OW 4454   1.992   1.794   1.851
 1481SOL    HW1 4455   1.951   1.720   1.904
 1481SOL    HW2 4456   2.056   1.845   1.909
 1482SOL     OW 4457   3.142   0.927   0.672
 1482SOL    HW1 4458   3.202   0.846   0.674
 1482SOL    HW2 4459   3.182   0.996   0.612
 1483SOL     OW 4460   2.692   1.273   1.422
 1483SOL    HW1 4461   2.687   1.306   1.517
 1483SOL    HW2 4462   2.606   1.292   1.376
 1484SOL     OW 4463   2.534   1.616   0.154
 1484SOL    HW1 4464   2.543   1.626   0.055
 1484SOL    HW2 4465   2.494   1.527   0.175
 1485SOL     OW 4466   3.512   1.720   1.394
 1485SOL    HW1 4467   3.565   1.730   1.310
 1485SOL    HW2 4468   3.485   1.810   1.428
 1486SOL     OW 4469   3.703   0.175   0.963
 1486SOL    HW1 4470   3.742   0.090   0.927
 1486SOL    HW2 4471   3.605   0.177   0.944
 1487SOL     OW 4472   2.125   0.326   0.720
 1487SOL    HW1 4473   2.046   0.377   0.686
 1487SOL    HW2 4474   2.116   0.311   0.818
 1488SOL     OW 4475   3.056   1.612   0.031
 1488SOL    HW1 4476   3.062   1.519   0.068
 1488SOL    HW2 4477   2.997   1.612  -0.049
 1489SOL     OW 4478   2.684   1.002   1.372
 1489SOL    HW1 4479   2.724   1.001   1.280
 1489SOL    HW2 4480   2.694   1.094   1.412
 1490SOL     OW 4481   2.778   0.910   0.291
 1490SOL    HW1 4482   2.841   0.948   0.223
 1490SOL    HW2 4483   2.818   0.827   0.330
 1491SOL     OW 4484   3.366   1.607   0.044
 1491SOL    HW1 4485   3.274   1.644   0.051
 1491SOL    HW2 4486   3.404   1.627  -0.046
 1492SOL     OW 4487   2.234   1.288   1.490
 1492SOL    HW1 4488   2.221   1.381   1.456
 1492SOL    HW2 4489   2.150   1.236   1.477
 1493SOL     OW 4490   3.476   1.292   1.289
 1493SOL    HW1 4491   3.536   1.295   1.369
 1493SOL    HW2 4492   3.401   1.356   1.302
 1494SOL     OW 4493   2.901   1.098   0.696
 1494SOL    HW1 4494   2.831   1.051   0.750
 1494SOL    HW2 4495   2.960   1.030   0.653
 1495SOL     OW 4496   2.876   0.236   0.971
 1495SOL    HW1 4497   2.868   0.200   0.878
 1495SOL    HW2 4498   2.874   0.160   1.036
 1496SOL     OW 4499   2.452   1.487   0.491
 1496SOL    HW1 4500   2.494   1.429   0.421
 1496SOL    HW2 4501   2.408   1.566   0.447
 1497SOL     OW 4502   3.571   0.385   1.381
 1497SOL    HW1 4503   3.644   0.454   1.385
 1497SOL    HW2 4504   3.599   0.310   1.322
 1498SOL     OW 4505   2.117   1.348   0.290
 1498SOL    HW1 4506   2.021   1.349   0.263
 1498SOL    HW2 4507   2.129   1.401   0.374
 1499SOL     OW 4508   1.967   1.013   1.726
 1499SOL    HW1 4509   1.890   0.980   1.780
 1499SOL    HW2 4510   2.052   0.983   1.768
 1500SOL     OW 4511   2.534   0.203   1.489
 1500SOL    HW1 4512   2.624   0.187   1.449
 1500SOL    HW2 4513   2.542   0.208   1.588
 1501SOL     OW 4514   3.302   0.856   1.398
 1501SOL    HW1 4515   3.245   0.908   1.335
 1501SOL    HW2 4516   3.398   0.868   1.374
 1502SOL     OW 4517   3.045   1.335   0.119
 1502SOL    HW1 4518   2.946   1.324   0.121
 1502SOL    HW2 4519   3.079   1.350   0.212
 1503SOL     OW 4520   2.475   0.842   1.431
 1503SOL    HW1 4521   2.531   0.923   1.414
 1503SOL    HW2 4522   2.534   0.762   1.434
 1504SOL     OW 4523   3.355   1.767   0.959
 1504SOL    HW1 4524   3.388   1.831   0.890
 1504SOL    HW2 4525   3.421   1.761   1.034
 1505SOL     OW 4526   2.578   0.565   1.708
 1505SOL    HW1 4527   2.597   0.630   1.782
 1505SOL    HW2 4528   2.638   0.485   1.717
 1506SOL     OW 4529   3.312   1.220   1.633
 1506SOL    HW1 4530   3.303   1.210   1.732
 1506SOL    HW2 4531   3.408   1.213   1.607
 1507SOL     OW 4532   2.252   1.741   1.560
 1507SOL    HW1 4533   2.161   1.782   1.558
 1507SOL    HW2 4534   2.245   1.647   1.592
 1508SOL     OW 4535   3.536   0.883   1.254
 1508SOL    HW1 4536   3.509   0.794   1.217
 1508SOL    HW2 4537   3.537   0.951   1.181
 1509SOL     OW 4538   3.087   0.325   0.449
 1509SOL    HW1 4539   3.152   0.251   0.438
 1509SOL    HW2 4540   3.107   0.375   0.533
 1510SOL     OW 4541   2.456   0.745   0.652
 1510SOL    HW1 4542   2.506   0.830   0.633
 1510SOL    HW2 4543   2.368   0.747   0.604
 1511SOL     OW 4544   3.639   0.342   1.642
 1511SOL    HW1 4545   3.622   0.373   1.548
 1511SOL    HW2 4546   3.555   0.305   1.680
 1512SOL     OW 4547   3.592   0.934   1.517
 1512SOL    HW1 4548   3.630   1.025   1.532
 1512SOL    HW2 4549   3.584   0.917   1.418
 1513SOL     OW 4550   2.721   1.374   0.016
 1513SOL    HW1 4551   2.675   1.389   0.104
 1513SOL    HW2 4552   2.765   1.459  -0.014
 1514SOL     OW 4553   2.523   1.790   0.953
 1514SOL    HW1 4554   2.477   1.878   0.940
 1514SOL    HW2 4555   2.622   1.802   0.946
 1515SOL     OW 4556   2.721   0.956   0.861
 1515SOL    HW1 4557   2.775   0.887   0.909
 1515SOL    HW2 4558   2.689   1.025   0.927
 1516SOL     OW 4559   2.945   0.984   0.087
 1516SOL    HW1 4560   2.922   1.037   0.005
 1516SOL    HW2 4561   3.026   0.928   0.068
 1517SOL     OW 4562   3.723   1.569   0.851
 1517SOL    HW1 4563   3.652   1.557   0.781
 1517SOL    HW2 4564   3.724   1.490   0.911
 1518SOL     OW 4565   2.083   1.314   1.844
 1518SOL    HW1 4566   2.018   1.241   1.823
 1518SOL    HW2 4567   2.087   1.328   1.942
 1519SOL     OW 4568   1.941   1.240   0.653
 1519SOL    HW1 4569   1.940   1.193   0.741
 1519SOL    HW2 4570   2.023   1.212   0.602
 1520SOL     OW 4571   2.534   1.391   1.624
 1520SOL    HW1 4572   2.456   1.341   1.662
 1520SOL    HW2 4573   2.531   1.486   1.655
 1521SOL     OW 4574   3.686   0.192   1.227
 1521SOL    HW1 4575   3.682   0.102   1.271
 1521SOL    HW2 4576   3.689   0.181   1.128
 1522SOL     OW 4577   2.290   0.424   0.520
 1522SOL    HW1 4578   2.320   0.352   0.458
 1522SOL    HW2 4579   2.251   0.384   0.603
 1523SOL     OW 4580   3.567   1.487   1.104
 1523SOL    HW1 4581   3.474   1.462   1.077
 1523SOL    HW2 4582   3.593   1.437   1.186
 1524SOL     OW 4583   2.179   0.547   1.280
 1524SOL    HW1 4584   2.217   0.488   1.352
 1524SOL    HW2 4585   2.219   0.521   1.192
 1525SOL     OW 4586   2.674   1.586   0.687
 1525SOL    HW1 4587   2.706   1.596   0.593
 1525SOL    HW2 4588   2.595   1.524   0.689
 1526SOL     OW 4589   3.286   0.214   1.112
 1526SOL    HW1 4590   3.338   0.149   1.167
 1526SOL    HW2 4591   3.237   0.277   1.173
 1527SOL     OW 4592   2.863   0.034   1.154
 1527SOL    HW1 4593   2.800  -0.038   1.123
 1527SOL    HW2 4594   2.956  -0.002   1.154
 1528SOL     OW 4595   2.632   1.330   0.301
 1528SOL    HW1 4596   2.586   1.243   0.318
 1528SOL    HW2 4597   2.723   1.327   0.342
 1529SOL     OW 4598   2.480   1.567   1.284
 1529SOL    HW1 4599   2.475   1.649   1.341
 1529SOL    HW2 4600   2.569   1.564   1.239
 1530SOL     OW 4601   3.214   0.052   0.168
 1530SOL    HW1 4602   3.249   0.011   0.084
 1530SOL    HW2 4603   3.124   0.014   0.188
 1531SOL     OW 4604   3.162   0.453   0.691
 1531SOL    HW1 4605   3.103   0.533   0.695
 1531SOL    HW2 4606   3.177   0.418   0.784
 1532SOL     OW 4607   3.455   0.221   0.882
 1532SOL    HW1 4608   3.371   0.220   0.936
 1532SOL    HW2 4609   3.457   0.304   0.826
 1533SOL     OW 4610   1.901   1.077   0.300
 1533SOL    HW1 4611   2.000   1.066   0.291
 1533SOL    HW2 4612   1.861   0.991   0.332
 1534SOL     OW 4613   2.737   1.646   0.337
 1534SOL    HW1 4614   2.660   1.611   0.283
 1534SOL    HW2 4615   2.705   1.717   0.399
 1535SOL     OW 4616   2.092   0.628   1.975
 1535SOL    HW1 4617   1.999   0.626   2.012
 1535SOL    HW2 4618   2.093   0.589   1.883
 1536SOL     OW 4619   2.087   0.275   2.858
 1536SOL    HW1 4620   2.122   0.258   2.950
 1536SOL    HW2 4621   1.999   0.230   2.846
 1537SOL     OW 4622   1.881   0.368   2.509
 1537SOL    HW1 4623   1.799   0.411   2.548
 1537SOL    HW2 4624   1.853   0.295   2.446
 1538SOL     OW 4625   2.431   1.275   3.027
 1538SOL    HW1 4626   2.338   1.268   2.990
 1538SOL    HW2 4627   2.442   1.364   3.071
 1539SOL     OW 4628   3.417   1.511   2.565
 1539SOL    HW1 4629   3.360   1.495   2.646
 1539SOL    HW2 4630   3.358   1.521   2.485
 1540SOL     OW 4631   2.997   0.703   2.579
 1540SOL    HW1 4632   3.054   0.781   2.554
 1540SOL    HW2 4633   2.937   0.729   2.655
 1541SOL     OW 4634   3.617   0.607   2.093
 1541SOL    HW1 4635   3.605   0.594   1.994
 1541SOL    HW2 4636   3.587   0.526   2.142
 1542SOL     OW 4637   2.630   1.144   2.885
 1542SOL    HW1 4638   2.552   1.161   2.945
 1542SOL    HW2 4639   2.664   1.231   2.849
 1543SOL     OW 4640   2.712   0.798   3.685
 1543SOL    HW1 4641   2.708   0.874   3.750
 1543SOL    HW2 4642   2.734   0.834   3.594
 1544SOL     OW 4643   2.547   1.012   2.527
 1544SOL    HW1 4644   2.616   0.996   2.597
 1544SOL    HW2 4645   2.474   1.069   2.565
 1545SOL     OW 4646   2.548   1.161   3.665
 1545SOL    HW1 4647   2.608   1.240   3.679
 1545SOL    HW2 4648   2.462   1.192   3.624
 1546SOL     OW 4649   2.197   1.435   2.923
 1546SOL    HW1 4650   2.119   1.404   2.870
 1546SOL    HW2 4651   2.255   1.493   2.866
 1547SOL     OW 4652   3.322   1.505   3.201
 1547SOL    HW1 4653   3.346   1.599   3.227
 1547SOL    HW2 4654   3.306   1.451   3.283
 1548SOL     OW 4655   2.300   0.392   3.361
 1548SOL    HW1 4656   2.382   0.336   3.370
 1548SOL    HW2 4657   2.219   0.334   3.365
 1549SOL     OW 4658   3.465   0.447   2.599
 1549SOL    HW1 4659   3.391   0.493   2.549
 1549SOL    HW2 4660   3.516   0.515   2.652
 1550SOL     OW 4661   2.093   1.713   2.345
 1550SOL    HW1 4662   2.127   1.790   2.399
 1550SOL    HW2 4663   2.137   1.713   2.255
 1551SOL     OW 4664   2.989   1.341   3.552
 1551SOL    HW1 4665   3.036   1.341   3.640
 1551SOL    HW2 4666   2.941   1.254   3.541
 1552SOL     OW 4667   2.092   1.434   2.400
 1552SOL    HW1 4668   2.066   1.530   2.400
 1552SOL    HW2 4669   2.021   1.380   2.445
 1553SOL     OW 4670   2.102   1.091   2.748
 1553SOL    HW1 4671   2.116   1.007   2.800
 1553SOL    HW2 4672   2.047   1.155   2.803
 1554SOL     OW 4673   2.482   1.786   3.301
 1554SOL    HW1 4674   2.390   1.769   3.336
 1554SOL    HW2 4675   2.510   1.878   3.327
 1555SOL     OW 4676   2.468   0.964   1.985
 1555SOL    HW1 4677   2.475   1.048   1.931
 1555SOL    HW2 4678   2.514   0.977   2.073
 1556SOL     OW 4679   3.456   0.114   3.342
 1556SOL    HW1 4680   3.438   0.181   3.270
 1556SOL    HW2 4681   3.453   0.160   3.431
 1557SOL     OW 4682   1.984   0.643   2.425
 1557SOL    HW1 4683   1.939   0.555   2.442
 1557SOL    HW2 4684   1.983   0.697   2.509
 1558SOL     OW 4685   3.704   1.767   2.221
 1558SOL    HW1 4686   3.758   1.738   2.301
 1558SOL    HW2 4687   3.734   1.857   2.192
 1559SOL     OW 4688   1.889   1.596   1.979
 1559SOL    HW1 4689   1.870   1.500   2.000
 1559SOL    HW2 4690   1.856   1.654   2.054
 1560SOL     OW 4691   3.551   0.922   2.474
 1560SOL    HW1 4692   3.646   0.893   2.482
 1560SOL    HW2 4693   3.543   0.987   2.399
 1561SOL     OW 4694   3.503   1.108   2.294
 1561SOL    HW1 4695   3.589   1.110   2.242
 1561SOL    HW2 4696   3.517   1.155   2.382
 1562SOL     OW 4697   1.975   0.737   3.459
 1562SOL    HW1 4698   2.063   0.724   3.504
 1562SOL    HW2 4699   1.962   0.834   3.437
 1563SOL     OW 4700   2.475   1.365   2.588
 1563SOL    HW1 4701   2.426   1.278   2.597
 1563SOL    HW2 4702   2.452   1.408   2.501
 1564SOL     OW 4703   3.155   1.228   3.285
 1564SOL    HW1 4704   3.192   1.155   3.227
 1564SOL    HW2 4705   3.207   1.233   3.370
 1565SOL     OW 4706   2.671   0.004   2.364
 1565SOL    HW1 4707   2.711   0.095   2.355
 1565SOL    HW2 4708   2.571   0.012   2.370
 1566SOL     OW 4709   2.059   0.976   3.126
 1566SOL    HW1 4710   2.148   0.931   3.112
 1566SOL    HW2 4711   1.986   0.911   3.107
 1567SOL     OW 4712   3.387   0.999   2.052
 1567SOL    HW1 4713   3.324   0.923   2.065
 1567SOL    HW2 4714   3.435   1.017   2.138
 1568SOL     OW 4715   3.049   1.792   3.478
 1568SOL    HW1 4716   3.073   1.852   3.402
 1568SOL    HW2 4717   3.056   1.697   3.448
 1569SOL     OW 4718   2.179   0.251   3.663
 1569SOL    HW1 4719   2.250   0.322   3.669
 1569SOL    HW2 4720   2.091   0.290   3.691
 1570SOL     OW 4721   3.328   1.417   2.815
 1570SOL    HW1 4722   3.269   1.423   2.895
 1570SOL    HW2 4723   3.313   1.329   2.769
 1571SOL     OW 4724   3.529   1.714   2.434
 1571SOL    HW1 4725   3.488   1.691   2.346
 1571SOL    HW2 4726   3.511   1.640   2.499
 1572SOL     OW 4727   2.460   0.729   2.132
 1572SOL    HW1 4728   2.484   0.798   2.064
 1572SOL    HW2 4729   2.382   0.762   2.186
 1573SOL     OW 4730   3.143   0.345   2.806
 1573SOL    HW1 4731   3.057   0.295   2.793
 1573SOL    HW2 4732   3.205   0.291   2.862
 1574SOL     OW 4733   3.438   1.662   2.169
 1574SOL    HW1 4734   3.527   1.708   2.172
 1574SOL    HW2 4735   3.417   1.638   2.074
 1575SOL     OW 4736   2.669   0.605   3.327
 1575SOL    HW1 4737   2.622   0.602   3.416
 1575SOL    HW2 4738   2.618   0.550   3.261
 1576SOL     OW 4739   3.256   0.469   3.536
 1576SOL    HW1 4740   3.236   0.512   3.624
 1576SOL    HW2 4741   3.334   0.407   3.545
 1577SOL     OW 4742   2.835   0.890   3.434
 1577SOL    HW1 4743   2.881   0.806   3.405
 1577SOL    HW2 4744   2.779   0.924   3.359
 1578SOL     OW 4745   2.853   0.410   3.104
 1578SOL    HW1 4746   2.776   0.444   3.158
 1578SOL    HW2 4747   2.819   0.359   3.025
 1579SOL     OW 4748   2.903   0.701   2.291
 1579SOL    HW1 4749   2.929   0.697   2.387
 1579SOL    HW2 4750   2.818   0.650   2.277
 1580SOL     OW 4751   1.938   0.811   2.651
 1580SOL    HW1 4752   2.037   0.799   2.660
 1580SOL    HW2 4753   1.914   0.906   2.672
 1581SOL     OW 4754   1.992   1.821   3.433
 1581SOL    HW1 4755   1.982   1.806   3.532
 1581SOL    HW2 4756   1.906   1.857   3.397
 1582SOL     OW 4757   2.727   0.348   2.057
 1582SOL    HW1 4758   2.786   0.411   2.008
 1582SOL    HW2 4759   2.746   0.254   2.028
 1583SOL     OW 4760   3.581   0.585   3.693
 1583SOL    HW1 4761   3.555   0.674   3.657
 1583SOL    HW2 4762   3.579   0.517   3.620
 1584SOL     OW 4763   3.224   1.144   2.407
 1584SOL    HW1 4764   3.307   1.115   2.359
 1584SOL    HW2 4765   3.175   1.211   2.351
 1585SOL     OW 4766   2.412   0.196   2.747
 1585SOL    HW1 4767   2.407   0.191   2.847
 1585SOL    HW2 4768   2.414   0.292   2.718
 1586SOL     OW 4769   2.870   1.456   2.339
 1586SOL    HW1 4770   2.824   1.528   2.287
 1586SOL    HW2 4771   2.866   1.476   2.437
 1587SOL     OW 4772   2.213   1.801   2.715
 1587SOL    HW1 4773   2.263   1.715   2.721
 1587SOL    HW2 4774   2.278   1.878   2.712
 1588SOL     OW 4775   3.657   1.066   2.735
 1588SOL    HW1 4776   3.595   1.051   2.659
 1588SOL    HW2 4777   3.605   1.077   2.820
 1589SOL     OW 4778   3.089   1.550   3.368
 1589SOL    HW1 4779   3.095   1.473   3.432
 1589SOL    HW2 4780   3.037   1.524   3.288
 1590SOL     OW 4781   2.183   0.943   2.104
 1590SOL    HW1 4782   2.265   0.982   2.062
 1590SOL    HW2 4783   2.156   0.861   2.055
 1591SOL     OW 4784   3.320   0.735   2.590
 1591SOL    HW1 4785   3.315   0.670   2.665
 1591SOL    HW2 4786   3.400   0.794   2.603
 1592SOL     OW 4787   2.323   1.266   3.589
 1592SOL    HW1 4788   2.273   1.267   3.503
 1592SOL    HW2 4789   2.260   1.248   3.665
 1593SOL     OW 4790   2.973   1.776   2.099
 1593SOL    HW1 4791   2.913   1.714   2.149
 1593SOL    HW2 4792   3.004   1.732   2.014
 1594SOL     OW 4793   2.064   0.285   3.360
 1594SOL    HW1 4794   1.984   0.345   3.347
 1594SOL    HW2 4795   2.054   0.236   3.446
 1595SOL     OW 4796   3.494   1.377   1.943
 1595SOL    HW1 4797   3.462   1.471   1.933
 1595SOL    HW2 4798   3.418   1.314   1.931
 1596SOL     OW 4799   2.326   1.743   2.185
 1596SOL    HW1 4800   2.359   1.782   2.271
 1596SOL    HW2 4801   2.402   1.736   2.120
 1597SOL     OW 4802   3.262   0.107   2.288
 1597SOL    HW1 4803   3.238   0.070   2.198
 1597SOL    HW2 4804   3.361   0.123   2.292
 1598SOL     OW 4805   2.111   1.785   3.103
 1598SOL    HW1 4806   2.168   1.720   3.153
 1598SOL    HW2 4807   2.095   1.752   3.010
 1599SOL     OW 4808   2.802   1.698   2.766
 1599SOL    HW1 4809   2.882   1.641   2.787
 1599SOL    HW2 4810   2.753   1.658   2.689
 1600SOL     OW 4811   2.244   0.700   2.342
 1600SOL    HW1 4812   2.289   0.610   2.339
 1600SOL    HW2 4813   2.150   0.689   2.375
 1601SOL     OW 4814   3.409   0.222   3.591
 1601SOL    HW1 4815   3.404   0.259   3.683
 1601SOL    HW2 4816   3.337   0.153   3.579
 1602SOL     OW 4817   2.476   0.122   1.979
 1602SOL    HW1 4818   2.574   0.100   1.986
 1602SOL    HW2 4819   2.445   0.105   1.886
 1603SOL     OW 4820   2.643   0.264   3.611
 1603SOL    HW1 4821   2.710   0.203   3.654
 1603SOL    HW2 4822   2.570   0.283   3.676
 1604SOL     OW 4823   2.750   1.514   3.057
 1604SOL    HW1 4824   2.727   1.489   2.963
 1604SOL    HW2 4825   2.811   1.445   3.096
 1605SOL     OW 4826   3.213   0.590   3.295
 1605SOL    HW1 4827   3.241   0.547   3.380
 1605SOL    HW2 4828   3.238   0.686   3.296
 1606SOL     OW 4829   2.665   1.402   2.786
 1606SOL    HW1 4830   2.755   1.416   2.744
 1606SOL    HW2 4831   2.594   1.404   2.715
 1607SOL     OW 4832   2.784   0.503   2.761
 1607SOL    HW1 4833   2.759   0.494   2.665
 1607SOL    HW2 4834   2.832   0.421   2.792
 1608SOL     OW 4835   2.401   0.064   2.374
 1608SOL    HW1 4836   2.320   0.065   2.432
 1608SOL    HW2 4837   2.404   0.147   2.319
 1609SOL     OW 4838   3.296   1.188   1.903
 1609SOL    HW1 4839   3.328   1.112   1.960
 1609SOL    HW2 4840   3.204   1.215   1.933
 1610SOL     OW 4841   2.159   0.035   2.033
 1610SOL    HW1 4842   2.208   0.119   2.012
 1610SOL    HW2 4843   2.221  -0.030   2.078
 1611SOL     OW 4844   2.797   0.236   2.342
 1611SOL    HW1 4845   2.749   0.277   2.264
 1611SOL    HW2 4846   2.896   0.234   2.323
 1612SOL     OW 4847   2.938   0.683   3.326
 1612SOL    HW1 4848   2.858   0.622   3.329
 1612SOL    HW2 4849   3.019   0.630   3.302
 1613SOL     OW 4850   3.089   1.570   2.655
 1613SOL    HW1 4851   3.110   1.644   2.590
 1613SOL    HW2 4852   3.157   1.570   2.728
 1614SOL     OW 4853   2.321   1.152   2.603
 1614SOL    HW1 4854   2.250   1.125   2.668
 1614SOL    HW2 4855   2.295   1.124   2.510
 1615SOL     OW 4856   3.133   1.797   2.453
 1615SOL    HW1 4857   3.177   1.861   2.389
 1615SOL    HW2 4858   3.083   1.849   2.523
 1616SOL     OW 4859   2.894   0.549   1.878
 1616SOL    HW1 4860   2.853   0.631   1.839
 1616SOL    HW2 4861   2.958   0.575   1.951
 1617SOL     OW 4862   1.940   0.556   3.248
 1617SOL    HW1 4863   2.032   0.555   3.207
 1617SOL    HW2 4864   1.934   0.630   3.315
 1618SOL     OW 4865   2.423   0.222   3.009
 1618SOL    HW1 4866   2.461   0.138   3.046
 1618SOL    HW2 4867   2.335   0.241   3.053
 1619SOL     OW 4868   2.728   0.454   2.504
 1619SOL    HW1 4869   2.696   0.526   2.442
 1619SOL    HW2 4870   2.752   0.373   2.451
 1620SOL     OW 4871   2.879   0.039   2.615
 1620SOL    HW1 4872   2.807   0.044   2.546
 1620SOL    HW2 4873   2.855  -0.030   2.684
 1621SOL     OW 4874   3.291   1.173   2.729
 1621SOL    HW1 4875   3.236   1.089   2.722
 1621SOL    HW2 4876   3.317   1.202   2.637
 1622SOL     OW 4877   3.328   0.590   2.854
 1622SOL    HW1 4878   3.298   0.495   2.861
 1622SOL    HW2 4879   3.401   0.606   2.920
 1623SOL     OW 4880   3.719   0.833   2.239
 1623SOL    HW1 4881   3.761   0.769   2.303
 1623SOL    HW2 4882   3.681   0.782   2.161
 1624SOL     OW 4883   2.350   1.385   2.036
 1624SOL    HW1 4884   2.263   1.370   2.083
 1624SOL    HW2 4885   2.333   1.411   1.941
 1625SOL     OW 4886   3.526   1.280   2.519
 1625SOL    HW1 4887   3.625   1.288   2.533
 1625SOL    HW2 4888   3.481   1.364   2.550
 1626SOL     OW 4889   3.252   0.575   1.940
 1626SOL    HW1 4890   3.198   0.554   2.021
 1626SOL    HW2 4891   3.343   0.534   1.949
 1627SOL     OW 4892   2.389   0.256   2.190
 1627SOL    HW1 4893   2.416   0.197   2.115
 1627SOL    HW2 4894   2.389   0.351   2.159
 1628SOL     OW 4895   3.616   1.223   3.450
 1628SOL    HW1 4896   3.707   1.184   3.437
 1628SOL    HW2 4897   3.624   1.319   3.474
 1629SOL     OW 4898   2.926   1.347   3.202
 1629SOL    HW1 4899   2.846   1.324   3.257
 1629SOL    HW2 4900   3.009   1.321   3.251
 1630SOL     OW 4901   3.454   1.629   3.487
 1630SOL    HW1 4902   3.481   1.663   3.397
 1630SOL    HW2 4903   3.533   1.591   3.533
 1631SOL     OW 4904   2.973   1.195   2.962
 1631SOL    HW1 4905   2.933   1.239   3.043
 1631SOL    HW2 4906   2.932   1.232   2.879
 1632SOL     OW 4907   3.500   1.099   2.941
 1632SOL    HW1 4908   3.505   1.180   3.000
 1632SOL    HW2 4909   3.414   1.101   2.890
 1633SOL     OW 4910   2.777   0.089   3.264
 1633SOL    HW1 4911   2.802   0.069   3.169
 1633SOL    HW2 4912   2.849   0.145   3.306
 1634SOL     OW 4913   2.842   1.116   3.581
 1634SOL    HW1 4914   2.743   1.122   3.591
 1634SOL    HW2 4915   2.865   1.036   3.525
 1635SOL     OW 4916   2.567   1.050   2.230
 1635SOL    HW1 4917   2.553   1.057   2.329
 1635SOL    HW2 4918   2.651   0.999   2.212
 1636SOL     OW 4919   2.272   0.813   3.113
 1636SOL    HW1 4920   2.358   0.825   3.163
 1636SOL    HW2 4921   2.230   0.726   3.140
 1637SOL     OW 4922   3.136   0.386   3.124
 1637SOL    HW1 4923   3.157   0.460   3.188
 1637SOL    HW2 4924   3.047   0.403   3.081
 1638SOL     OW 4925   1.926   1.564   3.193
 1638SOL    HW1 4926   1.880   1.646   3.159
 1638SOL    HW2 4927   2.024   1.583   3.202
 1639SOL     OW 4928   2.229   1.100   2.363
 1639SOL    HW1 4929   2.222   1.183   2.307
 1639SOL    HW2 4930   2.233   1.020   2.303
 1640SOL     OW 4931   2.428   0.537   2.727
 1640SOL    HW1 4932   2.440   0.603   2.653
 1640SOL    HW2 4933   2.474   0.571   2.810
 1641SOL     OW 4934   3.114   1.348   2.250
 1641SOL    HW1 4935   3.164   1.425   2.290
 1641SOL    HW2 4936   3.019   1.350   2.282
 1642SOL     OW 4937   3.134   1.445   3.004
 1642SOL    HW1 4938   3.181   1.458   3.091
 1642SOL    HW2 4939   3.068   1.371   3.013
 1643SOL     OW 4940   3.444   0.639   2.334
 1643SOL    HW1 4941   3.413   0.700   2.407
 1643SOL    HW2 4942   3.494   0.691   2.265
 1644SOL     OW 4943   2.216   1.510   3.191
 1644SOL    HW1 4944   2.195   1.466   3.104
 1644SOL    HW2 4945   2.313   1.536   3.194
 1645SOL     OW 4946   2.264   0.751   3.460
 1645SOL    HW1 4947   2.332   0.806   3.413
 1645SOL    HW2 4948   2.304   0.663   3.487
 1646SOL     OW 4949   3.449   0.779   3.532
 1646SOL    HW1 4950   3.357   0.817   3.527
 1646SOL    HW2 4951   3.509   0.826   3.467
 1647SOL     OW 4952   2.875   0.105   3.632
 1647SOL    HW1 4953   2.881   0.190   3.580
 1647SOL    HW2 4954   2.907   0.029   3.575
 1648SOL     OW 4955   2.366   0.050   3.602
 1648SOL    HW1 4956   2.324  -0.007   3.532
 1648SOL    HW2 4957   2.300   0.119   3.634
 1649SOL     OW 4958   2.435   0.870   2.891
 1649SOL    HW1 4959   2.479   0.959   2.882
 1649SOL    HW2 4960   2.372   0.870   2.968
 1650SOL     OW 4961   3.222   0.862   2.907
 1650SOL    HW1 4962   3.147   0.862   2.841
 1650SOL    HW2 4963   3.259   0.770   2.916
 1651SOL     OW 4964   3.071   0.525   2.137
 1651SOL    HW1 4965   3.084   0.441   2.191
 1651SOL    HW2 4966   3.042   0.599   2.197
 1652SOL     OW 4967   2.169   0.213   3.093
 1652SOL    HW1 4968   2.146   0.250   3.183
 1652SOL    HW2 4969   2.139   0.118   3.087
 1653SOL     OW 4970   1.899   1.310   3.144
 1653SOL    HW1 4971   1.952   1.261   3.212
 1653SOL    HW2 4972   1.921   1.408   3.149
 1654SOL     OW 4973   2.594   0.634   2.926
 1654SOL    HW1 4974   2.653   0.608   2.850
 1654SOL    HW2 4975   2.566   0.730   2.915
 1655SOL     OW 4976   3.590   0.935   3.716
 1655SOL    HW1 4977   3.544   0.928   3.627
 1655SOL    HW2 4978   3.528   0.979   3.782
 1656SOL     OW 4979   2.169   0.063   2.480
 1656SOL    HW1 4980   2.158   0.157   2.513
 1656SOL    HW2 4981   2.164   0.000   2.557
 1657SOL     OW 4982   3.484   0.367   2.236
 1657SOL    HW1 4983   3.486   0.291   2.300
 1657SOL    HW2 4984   3.436   0.444   2.276
 1658SOL     OW 4985   2.885   0.766   2.828
 1658SOL    HW1 4986   2.900   0.787   2.924
 1658SOL    HW2 4987   2.855   0.671   2.819
 1659SOL     OW 4988   2.842   1.573   3.562
 1659SOL    HW1 4989   2.822   1.617   3.474
 1659SOL    HW2 4990   2.881   1.482   3.546
 1660SOL     OW 4991   3.721   1.518   3.467
 1660SOL    HW1 4992   3.735   1.545   3.372
 1660SOL    HW2 4993   3.804   1.540   3.520
 1661SOL     OW 4994   2.212   0.898   3.666
 1661SOL    HW1 4995   2.288   0.942   3.714
 1661SOL    HW2 4996   2.247   0.851   3.584
 1662SOL     OW 4997   3.402   0.274   1.987
 1662SOL    HW1 4998   3.341   0.199   2.010
 1662SOL    HW2 4999   3.424   0.326   2.070
 1663SOL     OW 5000   3.165   0.838   1.904
 1663SOL    HW1 5001   3.199   0.745   1.919
 1663SOL    HW2 5002   3.183   0.865   1.809
 1664SOL     OW 5003   2.930   1.333   2.711
 1664SOL    HW1 5004   2.937   1.249   2.656
 1664SOL    HW2 5005   2.992   1.402   2.675
 1665SOL     OW 5006   2.181   0.810   2.811
 1665SOL    HW1 5007   2.274   0.846   2.816
 1665SOL    HW2 5008   2.175   0.725   2.863
 1666SOL     OW 5009   2.201   0.509   2.868
 1666SOL    HW1 5010   2.149   0.426   2.851
 1666SOL    HW2 5011   2.278   0.514   2.804
 1667SOL     OW 5012   3.000   0.380   3.540
 1667SOL    HW1 5013   2.955   0.443   3.604
 1667SOL    HW2 5014   3.093   0.411   3.523
 1668SOL     OW 5015   3.022   0.207   3.339
 1668SOL    HW1 5016   3.022   0.271   3.416
 1668SOL    HW2 5017   3.050   0.255   3.256
 1669SOL     OW 5018   1.870   1.326   2.062
 1669SOL    HW1 5019   1.777   1.347   2.031
 1669SOL    HW2 5020   1.880   1.227   2.075
 1670SOL     OW 5021   1.950   1.801   2.789
 1670SOL    HW1 5022   1.908   1.715   2.762
 1670SOL    HW2 5023   2.044   1.804   2.755
 1671SOL     OW 5024   2.366   1.568   2.772
 1671SOL    HW1 5025   2.432   1.642   2.781
 1671SOL    HW2 5026   2.410   1.489   2.730
 1672SOL     OW 5027   2.864   0.796   3.100
 1672SOL    HW1 5028   2.905   0.764   3.186
 1672SOL    HW2 5029   2.768   0.769   3.097
 1673SOL     OW 5030   1.902   0.544   2.976
 1673SOL    HW1 5031   1.987   0.511   2.935
 1673SOL    HW2 5032   1.915   0.559   3.074
 1674SOL     OW 5033   2.051   0.520   3.584
 1674SOL    HW1 5034   2.110   0.480   3.514
 1674SOL    HW2 5035   1.993   0.591   3.543
 1675SOL     OW 5036   3.231   0.950   3.522
 1675SOL    HW1 5037   3.270   1.039   3.542
 1675SOL    HW2 5038   3.241   0.930   3.425
 1676SOL     OW 5039   2.677   0.572   2.187
 1676SOL    HW1 5040   2.684   0.483   2.141
 1676SOL    HW2 5041   2.583   0.606   2.179
 1677SOL     OW 5042   3.519   0.604   3.068
 1677SOL    HW1 5043   3.481   0.535   3.130
 1677SOL    HW2 5044   3.601   0.568   3.024
 1678SOL     OW 5045   2.114   1.564   3.606
 1678SOL    HW1 5046   2.084   1.621   3.682
 1678SOL    HW2 5047   2.107   1.467   3.632
 1679SOL     OW 5048   2.533   0.464   3.131
 1679SOL    HW1 5049   2.499   0.375   3.101
 1679SOL    HW2 5050   2.559   0.518   3.051
 1680SOL     OW 5051   2.792   1.678   3.327
 1680SOL    HW1 5052   2.768   1.660   3.232
 1680SOL    HW2 5053   2.822   1.772   3.337
 1681SOL     OW 5054   2.335   0.500   2.053
 1681SOL    HW1 5055   2.396   0.580   2.057
 1681SOL    HW2 5056   2.240   0.531   2.060
 1682SOL     OW 5057   2.021   1.137   3.328
 1682SOL    HW1 5058   2.043   1.076   3.404
 1682SOL    HW2 5059   2.031   1.088   3.242
 1683SOL     OW 5060   3.209   1.059   3.096
 1683SOL    HW1 5061   3.233   0.996   3.022
 1683SOL    HW2 5062   3.119   1.099   3.078
 1684SOL     OW 5063   3.164   0.855   2.171
 1684SOL    HW1 5064   3.078   0.824   2.213
 1684SOL    HW2 5065   3.160   0.841   2.072
 1685SOL     OW 5066   3.621   1.747   3.016
 1685SOL    HW1 5067   3.682   1.777   2.943
 1685SOL    HW2 5068   3.583   1.658   2.994
 1686SOL     OW 5069   3.114   1.731   2.990
 1686SOL    HW1 5070   3.198   1.736   2.936
 1686SOL    HW2 5071   3.091   1.635   3.008
 1687SOL     OW 5072   1.945   1.258   2.884
 1687SOL    HW1 5073   1.940   1.257   2.984
 1687SOL    HW2 5074   1.862   1.217   2.846
 1688SOL     OW 5075   2.550   1.662   3.578
 1688SOL    HW1 5076   2.494   1.743   3.587
 1688SOL    HW2 5077   2.602   1.666   3.492
 1689SOL     OW 5078   3.588   0.135   2.385
 1689SOL    HW1 5079   3.661   0.118   2.318
 1689SOL    HW2 5080   3.557   0.048   2.423
 1690SOL     OW 5081   3.250   1.573   2.339
 1690SOL    HW1 5082   3.317   1.585   2.265
 1690SOL    HW2 5083   3.210   1.662   2.362
 1691SOL     OW 5084   1.992   1.794   3.713
 1691SOL    HW1 5085   1.951   1.720   3.766
 1691SOL    HW2 5086   2.056   1.845   3.771
 1692SOL     OW 5087   3.142   0.927   2.534
 1692SOL    HW1 5088   3.202   0.846   2.536
 1692SOL    HW2 5089   3.182   0.996   2.474
 1693SOL     OW 5090   2.692   1.273   3.284
 1693SOL    HW1 5091   2.687   1.306   3.379
 1693SOL    HW2 5092   2.606   1.292   3.238
 1694SOL     OW 5093   2.534   1.616   2.016
 1694SOL    HW1 5094   2.543   1.626   1.917
 1694SOL    HW2 5095   2.494   1.527   2.037
 1695SOL     OW 5096   3.512   1.720   3.256
 1695SOL    HW1 5097   3.565   1.730   3.172
 1695SOL    HW2 5098   3.485   1.810   3.290
 1696SOL     OW 5099   3.703   0.175   2.825
 1696SOL    HW1 5100   3.742   0.090   2.789
 1696SOL    HW2 5101   3.605   0.177   2.806
 1697SOL     OW 5102   2.125   0.326   2.582
 1697SOL    HW1 5103   2.046   0.377   2.548
 1697SOL    HW2 5104   2.116   0.311   2.680
 1698SOL     OW 5105   3.056   1.612   1.893
 1698SOL    HW1 5106   3.062   1.519   1.930
 1698SOL    HW2 5107   2.997   1.612   1.813
 1699SOL     OW 5108   2.684   1.002   3.234
 1699SOL    HW1 5109   2.724   1.001   3.142
 1699SOL    HW2 5110   2.694   1.094   3.274
 1700SOL     OW 5111   2.778   0.910   2.153
 1700SOL    HW1 5112   2.841   0.948   2.085
 1700SOL    HW2 5113   2.818   0.827   2.192
 1701SOL     OW 5114   3.366   1.607   1.906
 1701SOL    HW1 5115   3.274   1.644   1.913
 1701SOL    HW2 5116   3.404   1.627   1.816
 1702SOL     OW 5117   2.234   1.288   3.352
 1702SOL    HW1 5118   2.221   1.381   3.318
 1702SOL    HW2 5119   2.150   1.236   3.339
 1703SOL     OW 5120   3.476   1.292   3.151
 1703SOL    HW1 5121   3.536   1.295   3.231
 1703SOL    HW2 5122   3.401   1.356   3.164
 1704SOL     OW 5123   2.901   1.098   2.558
 1704SOL    HW1 5124   2.831   1.051   2.612
 1704SOL    HW2 5125   2.960   1.030   2.515
 1705SOL     OW 5126   2.876   0.236   2.833
 1705SOL    HW1 5127   2.868   0.200   2.740
 1705SOL    HW2 5128   2.874   0.160   2.898
 1706SOL     OW 5129   2.452   1.487   2.353
 1706SOL    HW1 5130   2.494   1.429   2.283
 1706SOL    HW2 5131   2.408   1.566   2.309
 1707SOL     OW 5132   3.571   0.385   3.243
 1707SOL    HW1 5133   3.644   0.454   3.247
 1707SOL    HW2 5134   3.599   0.310   3.184
 1708SOL     OW 5135   2.117   1.348   2.152
 1708SOL    HW1 5136   2.021   1.349   2.125
 1708SOL    HW2 5137   2.129   1.401   2.236
 1709SOL     OW 5138   1.967   1.013   3.588
 1709SOL    HW1 5139   1.890   0.980   3.642
 1709SOL    HW2 5140   2.052   0.983   3.630
 1710SOL     OW 5141   2.534   0.203   3.351
 1710SOL    HW1 5142   2.624   0.187   3.311
 1710SOL    HW2 5143   2.542   0.208   3.450
 1711SOL     OW 5144   1.937   0.345   1.895
 1711SOL    HW1 5145   1.845   0.317   1.866
 1711SOL    HW2 5146   1.968   0.422   1.839
 1712SOL     OW 5147   3.302   0.856   3.260
 1712SOL    HW1 5148   3.245   0.908   3.197
 1712SOL    HW2 5149   3.398   0.868   3.236
 1713SOL     OW 5150   1.934   0.166   2.180
 1713SOL    HW1 5151   1.917   0.249   2.126
 1713SOL    HW2 5152   2.024   0.129   2.158
 1714SOL     OW 5153   3.045   1.335   1.981
 1714SOL    HW1 5154   2.946   1.324   1.983
 1714SOL    HW2 5155   3.079   1.350   2.074
 1715SOL     OW 5156   2.475   0.842   3.293
 1715SOL    HW1 5157   2.531   0.923   3.276
 1715SOL    HW2 5158   2.534   0.762   3.296
 1716SOL     OW 5159   3.355   1.767   2.821
 1716SOL    HW1 5160   3.388   1.831   2.752
 1716SOL    HW2 5161   3.421   1.761   2.896
 1717SOL     OW 5162   2.578   0.565   3.570
 1717SOL    HW1 5163   2.597   0.630   3.644
 1717SOL    HW2 5164   2.638   0.485   3.579
 1718SOL     OW 5165   3.312   1.220   3.495
 1718SOL    HW1 5166   3.303   1.210   3.594
 1718SOL    HW2 5167   3.408   1.213   3.469
 1719SOL     OW 5168   2.252   1.741   3.422
 1719SOL    HW1 5169   2.161   1.782   3.420
 1719SOL    HW2 5170   2.245   1.647   3.454
 1720SOL     OW 5171   3.536   0.883   3.116
 1720SOL    HW1 5172   3.509   0.794   3.079
 1720SOL    HW2 5173   3.537   0.951   3.043
 1721SOL     OW 5174   3.087   0.325   2.311
 1721SOL    HW1 5175   3.152   0.251   2.300
 1721SOL    HW2 5176   3.107   0.375   2.395
 1722SOL     OW 5177   2.456   0.745   2.514
 1722SOL    HW1 5178   2.506   0.830   2.495
 1722SOL    HW2 5179   2.368   0.747   2.466
 1723SOL     OW 5180   3.639   0.342   3.504
 1723SOL    HW1 5181   3.622   0.373   3.410
 1723SOL    HW2 5182   3.555   0.305   3.542
 1724SOL     OW 5183   3.592   0.934   3.379
 1724SOL    HW1 5184   3.630   1.025   3.394
 1724SOL    HW2 5185   3.584   0.917   3.280
 1725SOL     OW 5186   2.721   1.374   1.878
 1725SOL    HW1 5187   2.675   1.389   1.966
 1725SOL    HW2 5188   2.765   1.459   1.848
 1726SOL     OW 5189   2.523   1.790   2.815
 1726SOL    HW1 5190   2.477   1.878   2.802
 1726SOL    HW2 5191   2.622   1.802   2.808
 1727SOL     OW 5192   2.721   0.956   2.723
 1727SOL    HW1 5193   2.775   0.887   2.771
 1727SOL    HW2 5194   2.689   1.025   2.789
 1728SOL     OW 5195   2.945   0.984   1.949
 1728SOL    HW1 5196   2.922   1.037   1.867
 1728SOL    HW2 5197   3.026   0.928   1.930
 1729SOL     OW 5198   3.723   1.569   2.713
 1729SOL    HW1 5199   3.652   1.557   2.643
 1729SOL    HW2 5200   3.724   1.490   2.773
 1730SOL     OW 5201   2.083   1.314   3.706
 1730SOL    HW1 5202   2.018   1.241   3.685
 1730SOL    HW2 5203   2.087   1.328   3.804
 1731SOL     OW 5204   1.941   1.240   2.515
 1731SOL    HW1 5205   1.940   1.193   2.603
 1731SOL    HW2 5206   2.023   1.212   2.464
 1732SOL     OW 5207   2.534   1.391   3.486
 1732SOL    HW1 5208   2.456   1.341   3.524
 1732SOL    HW2 5209   2.531   1.486   3.517
 1733SOL     OW 5210   3.686   0.192   3.089
 1733SOL    HW1 5211   3.682   0.102   3.133
 1733SOL    HW2 5212   3.689   0.181   2.990
 1734SOL     OW 5213   2.290   0.424   2.382
 1734SOL    HW1 5214   2.320   0.352   2.320
 1734SOL    HW2 5215   2.251   0.384   2.465
 1735SOL     OW 5216   3.567   1.487   2.966
 1735SOL    HW1 5217   3.474   1.462   2.939
 1735SOL    HW2 5218   3.593   1.437   3.048
 1736SOL     OW 5219   2.179   0.547   3.142
 1736SOL    HW1 5220   2.217   0.488   3.214
 1736SOL    HW2 5221   2.219   0.521   3.054
 1737SOL     OW 5222   2.674   1.586   2.549
 1737SOL    HW1 5223   2.706   1.596   2.455
 1737SOL    HW2 5224   2.595   1.524   2.551
 1738SOL     OW 5225   3.286   0.214   2.974
 1738SOL    HW1 5226   3.338   0.149   3.029
 1738SOL    HW2 5227   3.237   0.277   3.035
 1739SOL     OW 5228   2.863   0.034   3.016
 1739SOL    HW1 5229   2.800  -0.038   2.985
 1739SOL    HW2 5230   2.956  -0.002   3.016
 1740SOL     OW 5231   2.632   1.330   2.163
 1740SOL    HW1 5232   2.586   1.243   2.180
 1740SOL    HW2 5233   2.723   1.327   2.204
 1741SOL     OW 5234   2.480   1.567   3.146
 1741SOL    HW1 5235   2.475   1.649   3.203
 1741SOL    HW2 5236   2.569   1.564   3.101
 1742SOL     OW 5237   3.214   0.052   2.030
 1742SOL    HW1 5238   3.249   0.011   1.946
 1742SOL    HW2 5239   3.124   0.014   2.050
 1743SOL     OW 5240   3.162   0.453   2.553
 1743SOL    HW1 5241   3.103   0.533   2.557
 1743SOL    HW2 5242   3.177   0.418   2.646
 1744SOL     OW 5243   3.455   0.221   2.744
 1744SOL    HW1 5244   3.371   0.220   2.798
 1744SOL    HW2 5245   3.457   0.304   2.688
 1745SOL     OW 5246   1.901   1.077   2.162
 1745SOL    HW1 5247   2.000   1.066   2.153
 1745SOL    HW2 5248   1.861   0.991   2.194
 1746SOL     OW 5249   2.737   1.646   2.199
 1746SOL    HW1 5250   2.660   1.611   2.145
 1746SOL    HW2 5251   2.705   1.717   2.261
 1747SOL     OW 5252   2.092   0.628   3.837
 1747SOL    HW1 5253   1.999   0.626   3.874
 1747SOL    HW2 5254   2.093   0.589   3.745
 1748SOL     OW 5255   2.087   0.275   4.720
 1748SOL    HW1 5256   2.122   0.258   4.812
 1748SOL    HW2 5257   1.999   0.230   4.708
 1749SOL     OW 5258   1.881   0.368   4.371
 1749SOL    HW1 5259   1.799   0.411   4.410
 1749SOL    HW2 5260   1.853   0.295   4.308
 1750SOL     OW 5261   3.417   1.511   4.427
 1750SOL    HW1 5262   3.360   1.495   4.508
 1750SOL    HW2 5263   3.358   1.521   4.347
 1751SOL     OW 5264   2.997   0.703   4.441
 1751SOL    HW1 5265   3.054   0.781   4.416
 1751SOL    HW2 5266   2.937   0.729   4.517
 1752SOL     OW 5267   3.617   0.607   3.955
 1752SOL    HW1 5268   3.605   0.594   3.856
 1752SOL    HW2 5269   3.587   0.526   4.004
 1753SOL     OW 5270   2.547   1.012   4.389
 1753SOL    HW1 5271   2.616   0.996   4.459
 1753SOL    HW2 5272   2.474   1.069   4.427
 1754SOL     OW 5273   3.465   0.447   4.461
 1754SOL    HW1 5274   3.391   0.493   4.411
 1754SOL    HW2 5275   3.516   0.515   4.514
 1755SOL     OW 5276   2.093   1.713   4.207
 1755SOL    HW1 5277   2.127   1.790   4.261
 1755SOL    HW2 5278   2.137   1.713   4.117
 1756SOL     OW 5279   2.092   1.434   4.262
 1756SOL    HW1 5280   2.066   1.530   4.262
 1756SOL    HW2 5281   2.021   1.380   4.307
 1757SOL     OW 5282   2.102   1.091   4.610
 1757SOL    HW1 5283   2.116   1.007   4.662
 1757SOL    HW2 5284   2.047   1.155   4.665
 1758SOL     OW 5285   2.468   0.964   3.847
 1758SOL    HW1 5286   2.475   1.048   3.793
 1758SOL    HW2 5287   2.514   0.977   3.935
 1759SOL     OW 5288   1.984   0.643   4.287
 1759SOL    HW1 5289   1.939   0.555   4.304
 1759SOL    HW2 5290   1.983   0.697   4.371
 1760SOL     OW 5291   3.704   1.767   4.083
 1760SOL    HW1 5292   3.758   1.738   4.163
 1760SOL    HW2 5293   3.734   1.857   4.054
 1761SOL     OW 5294   1.889   1.596   3.841
 1761SOL    HW1 5295   1.870   1.500   3.862
 1761SOL    HW2 5296   1.856   1.654   3.916
 1762SOL     OW 5297   3.551   0.922   4.336
 1762SOL    HW1 5298   3.646   0.893   4.344
 1762SOL    HW2 5299   3.543   0.987   4.261
 1763SOL     OW 5300   3.503   1.108   4.156
 1763SOL    HW1 5301   3.589   1.110   4.104
 1763SOL    HW2 5302   3.517   1.155   4.244
 1764SOL     OW 5303   2.475   1.365   4.450
 1764SOL    HW1 5304   2.426   1.278   4.459
 1764SOL    HW2 5305   2.452   1.408   4.363
 1765SOL     OW 5306   2.671   0.004   4.226
 1765SOL    HW1 5307   2.711   0.095   4.217
 1765SOL    HW2 5308   2.571   0.012   4.232
 1766SOL     OW 5309   3.387   0.999   3.914
 1766SOL    HW1 5310   3.324   0.923   3.927
 1766SOL    HW2 5311   3.435   1.017   4.000
 1767SOL     OW 5312   3.328   1.417   4.677
 1767SOL    HW1 5313   3.269   1.423   4.757
 1767SOL    HW2 5314   3.313   1.329   4.631
 1768SOL     OW 5315   3.529   1.714   4.296
 1768SOL    HW1 5316   3.488   1.691   4.208
 1768SOL    HW2 5317   3.511   1.640   4.361
 1769SOL     OW 5318   2.460   0.729   3.994
 1769SOL    HW1 5319   2.484   0.798   3.926
 1769SOL    HW2 5320   2.382   0.762   4.048
 1770SOL     OW 5321   3.143   0.345   4.668
 1770SOL    HW1 5322   3.057   0.295   4.655
 1770SOL    HW2 5323   3.205   0.291   4.724
 1771SOL     OW 5324   3.438   1.662   4.031
 1771SOL    HW1 5325   3.527   1.708   4.034
 1771SOL    HW2 5326   3.417   1.638   3.936
 1772SOL     OW 5327   2.903   0.701   4.153
 1772SOL    HW1 5328   2.929   0.697   4.249
 1772SOL    HW2 5329   2.818   0.650   4.139
 1773SOL     OW 5330   1.938   0.811   4.513
 1773SOL    HW1 5331   2.037   0.799   4.522
 1773SOL    HW2 5332   1.914   0.906   4.534
 1774SOL     OW 5333   2.727   0.348   3.919
 1774SOL    HW1 5334   2.786   0.411   3.870
 1774SOL    HW2 5335   2.746   0.254   3.890
 1775SOL     OW 5336   3.224   1.144   4.269
 1775SOL    HW1 5337   3.307   1.115   4.221
 1775SOL    HW2 5338   3.175   1.211   4.213
 1776SOL     OW 5339   2.870   1.456   4.201
 1776SOL    HW1 5340   2.824   1.528   4.149
 1776SOL    HW2 5341   2.866   1.476   4.299
 1777SOL     OW 5342   2.213   1.801   4.577
 1777SOL    HW1 5343   2.263   1.715   4.583
 1777SOL    HW2 5344   2.278   1.878   4.574
 1778SOL     OW 5345   3.657   1.066   4.597
 1778SOL    HW1 5346   3.595   1.051   4.521
 1778SOL    HW2 5347   3.605   1.077   4.682
 1779SOL     OW 5348   2.183   0.943   3.966
 1779SOL    HW1 5349   2.265   0.982   3.924
 1779SOL    HW2 5350   2.156   0.861   3.917
 1780SOL     OW 5351   3.320   0.735   4.452
 1780SOL    HW1 5352   3.315   0.670   4.527
 1780SOL    HW2 5353   3.400   0.794   4.465
 1781SOL     OW 5354   2.973   1.776   3.961
 1781SOL    HW1 5355   2.913   1.714   4.011
 1781SOL    HW2 5356   3.004   1.732   3.876
 1782SOL     OW 5357   3.494   1.377   3.805
 1782SOL    HW1 5358   3.462   1.471   3.795
 1782SOL    HW2 5359   3.418   1.314   3.793
 1783SOL     OW 5360   2.326   1.743   4.047
 1783SOL    HW1 5361   2.359   1.782   4.133
 1783SOL    HW2 5362   2.402   1.736   3.982
 1784SOL     OW 5363   3.262   0.107   4.150
 1784SOL    HW1 5364   3.238   0.070   4.060
 1784SOL    HW2 5365   3.361   0.123   4.154
 1785SOL     OW 5366   2.244   0.700   4.204
 1785SOL    HW1 5367   2.289   0.610   4.201
 1785SOL    HW2 5368   2.150   0.689   4.237
 1786SOL     OW 5369   2.476   0.122   3.841
 1786SOL    HW1 5370   2.574   0.100   3.848
 1786SOL    HW2 5371   2.445   0.105   3.748
 1787SOL     OW 5372   2.401   0.064   4.236
 1787SOL    HW1 5373   2.320   0.065   4.294
 1787SOL    HW2 5374   2.404   0.147   4.181
 1788SOL     OW 5375   3.296   1.188   3.765
 1788SOL    HW1 5376   3.328   1.112   3.822
 1788SOL    HW2 5377   3.204   1.215   3.795
 1789SOL     OW 5378   2.159   0.035   3.895
 1789SOL    HW1 5379   2.208   0.119   3.874
 1789SOL    HW2 5380   2.221  -0.030   3.940
 1790SOL     OW 5381   2.797   0.236   4.204
 1790SOL    HW1 5382   2.749   0.277   4.126
 1790SOL    HW2 5383   2.896   0.234   4.185
 1791SOL     OW 5384   3.089   1.570   4.517
 1791SOL    HW1 5385   3.110   1.644   4.452
 1791SOL    HW2 5386   3.157   1.570   4.590
 1792SOL     OW 5387   2.321   1.152   4.465
 1792SOL    HW1 5388   2.250   1.125   4.530
 1792SOL    HW2 5389   2.295   1.124   4.372
 1793SOL     OW 5390   3.133   1.797   4.315
 1793SOL    HW1 5391   3.177   1.861   4.251
 1793SOL    HW2 5392   3.083   1.849   4.385
 1794SOL     OW 5393   2.894   0.549   3.740
 1794SOL    HW1 5394   2.853   0.631   3.701
 1794SOL    HW2 5395   2.958   0.575   3.813
 1795SOL     OW 5396   2.728   0.454   4.366
 1795SOL    HW1 5397   2.696   0.526   4.304
 1795SOL    HW2 5398   2.752   0.373   4.313
 1796SOL     OW 5399   2.879   0.039   4.477
 1796SOL    HW1 5400   2.807   0.044   4.408
 1796SOL    HW2 5401   2.855  -0.030   4.546
 1797SOL     OW 5402   3.719   0.833   4.101
 1797SOL    HW1 5403   3.761   0.769   4.165
 1797SOL    HW2 5404   3.681   0.782   4.023
 1798SOL     OW 5405   2.350   1.385   3.898
 1798SOL    HW1 5406   2.263   1.370   3.945
 1798SOL    HW2 5407   2.333   1.411   3.803
 1799SOL     OW 5408   3.526   1.280   4.381
 1799SOL    HW1 5409   3.625   1.288   4.395
 1799SOL    HW2 5410   3.481   1.364   4.412
 1800SOL     OW 5411   3.252   0.575   3.802
 1800SOL    HW1 5412   3.198   0.554   3.883
 1800SOL    HW2 5413   3.343   0.534   3.811
 1801SOL     OW 5414   2.389   0.256   4.052
 1801SOL    HW1 5415   2.416   0.197   3.977
 1801SOL    HW2 5416   2.389   0.351   4.021
 1802SOL     OW 5417   2.567   1.050   4.092
 1802SOL    HW1 5418   2.553   1.057   4.191
 1802SOL    HW2 5419   2.651   0.999   4.074
 1803SOL     OW 5420   2.229   1.100   4.225
 1803SOL    HW1 5421   2.222   1.183   4.169
 1803SOL    HW2 5422   2.233   1.020   4.165
 1804SOL     OW 5423   2.428   0.537   4.589
 1804SOL    HW1 5424   2.440   0.603   4.515
 1804SOL    HW2 5425   2.474   0.571   4.672
 1805SOL     OW 5426   3.114   1.348   4.112
 1805SOL    HW1 5427   3.164   1.425   4.152
 1805SOL    HW2 5428   3.019   1.350   4.144
 1806SOL     OW 5429   3.444   0.639   4.196
 1806SOL    HW1 5430   3.413   0.700   4.269
 1806SOL    HW2 5431   3.494   0.691   4.127
 1807SOL     OW 5432   3.071   0.525   3.999
 1807SOL    HW1 5433   3.084   0.441   4.053
 1807SOL    HW2 5434   3.042   0.599   4.059
 1808SOL     OW 5435   2.594   0.634   4.788
 1808SOL    HW1 5436   2.653   0.608   4.712
 1808SOL    HW2 5437   2.566   0.730   4.777
 1809SOL     OW 5438   2.169   0.063   4.342
 1809SOL    HW1 5439   2.158   0.157   4.375
 1809SOL    HW2 5440   2.164   0.000   4.419
 1810SOL     OW 5441   3.484   0.367   4.098
 1810SOL    HW1 5442   3.486   0.291   4.162
 1810SOL    HW2 5443   3.436   0.444   4.138
 1811SOL     OW 5444   3.402   0.274   3.849
 1811SOL    HW1 5445   3.341   0.199   3.872
 1811SOL    HW2 5446   3.424   0.326   3.932
 1812SOL     OW 5447   3.165   0.838   3.766
 1812SOL    HW1 5448   3.199   0.745   3.781
 1812SOL    HW2 5449   3.183   0.865   3.671
 1813SOL     OW 5450   2.930   1.333   4.573
 1813SOL    HW1 5451   2.937   1.249   4.518
 1813SOL    HW2 5452   2.992   1.402   4.537
 1814SOL     OW 5453   1.870   1.326   3.924
 1814SOL    HW1 5454   1.777   1.347   3.893
 1814SOL    HW2 5455   1.880   1.227   3.937
 1815SOL     OW 5456   1.950   1.801   4.651
 1815SOL    HW1 5457   1.908   1.715   4.624
 1815SOL    HW2 5458   2.044   1.804   4.617
 1816SOL     OW 5459   2.366   1.568   4.634
 1816SOL    HW1 5460   2.432   1.642   4.643
 1816SOL    HW2 5461   2.410   1.489   4.592
 1817SOL     OW 5462   2.677   0.572   4.049
 1817SOL    HW1 5463   2.684   0.483   4.003
 1817SOL    HW2 5464   2.583   0.606   4.041
 1818SOL     OW 5465   2.335   0.500   3.915
 1818SOL    HW1 5466   2.396   0.580   3.919
 1818SOL    HW2 5467   2.240   0.531   3.922
 1819SOL     OW 5468   3.164   0.855   4.033
 1819SOL    HW1 5469   3.078   0.824   4.075
 1819SOL    HW2 5470   3.160   0.841   3.934
 1820SOL     OW 5471   3.588   0.135   4.247
 1820SOL    HW1 5472   3.661   0.118   4.180
 1820SOL    HW2 5473   3.557   0.048   4.285
 1821SOL     OW 5474   3.250   1.573   4.201
 1821SOL    HW1 5475   3.317   1.585   4.127
 1821SOL    HW2 5476   3.210   1.662   4.224
 1822SOL     OW 5477   3.142   0.927   4.396
 1822SOL    HW1 5478   3.202   0.846   4.398
 1822SOL    HW2 5479   3.182   0.996   4.336
 1823SOL     OW 5480   2.534   1.616   3.878
 1823SOL    HW1 5481   2.543   1.626   3.779
 1823SOL    HW2 5482   2.494   1.527   3.899
 1824SOL     OW 5483   3.703   0.175   4.687
 1824SOL    HW1 5484   3.742   0.090   4.651
 1824SOL    HW2 5485   3.605   0.177   4.668
 1825SOL     OW 5486   2.125   0.326   4.444
 1825SOL    HW1 5487   2.046   0.377   4.410
 1825SOL    HW2 5488   2.116   0.311   4.542
 1826SOL     OW 5489   3.056   1.612   3.755
 1826SOL    HW1 5490   3.062   1.519   3.792
 1826SOL    HW2 5491   2.997   1.612   3.675
 1827SOL     OW 5492   2.778   0.910   4.015
 1827SOL    HW1 5493   2.841   0.948   3.947
 1827SOL    HW2 5494   2.818   0.827   4.054
 1828SOL     OW 5495   3.366   1.607   3.768
 1828SOL    HW1 5496   3.274   1.644   3.775
 1828SOL    HW2 5497   3.404   1.627   3.678
 1829SOL     OW 5498   2.901   1.098   4.420
 1829SOL    HW1 5499   2.831   1.051   4.474
 1829SOL    HW2 5500   2.960   1.030   4.377
 1830SOL     OW 5501   2.452   1.487   4.215
 1830SOL    HW1 5502   2.494   1.429   4.145
 1830SOL    HW2 5503   2.408   1.566   4.171
 1831SOL     OW 5504   2.117   1.348   4.014
 1831SOL    HW1 5505   2.021   1.349   3.987
 1831SOL    HW2 5506   2.129   1.401   4.098
 1832SOL     OW 5507   1.937   0.345   3.757
 1832SOL    HW1 5508   1.845   0.317   3.728
 1832SOL    HW2 5509   1.968   0.422   3.701
 1833SOL     OW 5510   1.934   0.166   4.042
 1833SOL    HW1 5511   1.917   0.249   3.988
 1833SOL    HW2 5512   2.024   0.129   4.020
 1834SOL     OW 5513   3.045   1.335   3.843
 1834SOL    HW1 5514   2.946   1.324   3.845
 1834SOL    HW2 5515   3.079   1.350   3.936
 1835SOL     OW 5516   3.087   0.325   4.173
 1835SOL    HW1 5517   3.152   0.251   4.162
 1835SOL    HW2 5518   3.107   0.375   4.257
 1836SOL     OW 5519   2.456   0.745   4.376
 1836SOL    HW1 5520   2.506   0.830   4.357
 1836SOL    HW2 5521   2.368   0.747   4.328
 1837SOL     OW 5522   2.721   1.374   3.740
 1837SOL    HW1 5523   2.675   1.389   3.828
 1837SOL    HW2 5524   2.765   1.459   3.710
 1838SOL     OW 5525   2.523   1.790   4.677
 1838SOL    HW1 5526   2.477   1.878   4.664
 1838SOL    HW2 5527   2.622   1.802   4.670
 1839SOL     OW 5528   2.721   0.956   4.585
 1839SOL    HW1 5529   2.775   0.887   4.633
 1839SOL    HW2 5530   2.689   1.025   4.651
 1840SOL     OW 5531   2.945   0.984   3.811
 1840SOL    HW1 5532   2.922   1.037   3.729
 1840SOL    HW2 5533   3.026   0.928   3.792
 1841SOL     OW 5534   3.723   1.569   4.575
 1841SOL    HW1 5535   3.652   1.557   4.505
 1841SOL    HW2 5536   3.724   1.490   4.635
 1842SOL     OW 5537   1.941   1.240   4.377
 1842SOL    HW1 5538   1.940   1.193   4.465
 1842SOL    HW2 5539   2.023   1.212   4.326
 1843SOL     OW 5540   3.686   0.192   4.951
 1843SOL    HW1 5541   3.682   0.102   4.995
 1843SOL    HW2 5542   3.689   0.181   4.852
 1844SOL     OW 5543   2.290   0.424   4.244
 1844SOL    HW1 5544   2.320   0.352   4.182
 1844SOL    HW2 5545   2.251   0.384   4.327
 1845SOL     OW 5546   2.674   1.586   4.411
 1845SOL    HW1 5547   2.706   1.596   4.317
 1845SOL    HW2 5548   2.595   1.524   4.413
 1846SOL     OW 5549   2.632   1.330   4.025
 1846SOL    HW1 5550   2.586   1.243   4.042
 1846SOL    HW2 5551   2.723   1.327   4.066
 1847SOL     OW 5552   3.214   0.052   3.892
 1847SOL    HW1 5553   3.249   0.011   3.808
 1847SOL    HW2 5554   3.124   0.014   3.912
 1848SOL     OW 5555   3.162   0.453   4.415
 1848SOL    HW1 5556   3.103   0.533   4.419
 1848SOL    HW2 5557   3.177   0.418   4.508
 1849SOL     OW 5558   3.455   0.221   4.606
 1849SOL    HW1 5559   3.371   0.220   4.660
 1849SOL    HW2 5560   3.457   0.304   4.550
 1850SOL     OW 5561   1.901   1.077   4.024
 1850SOL    HW1 5562   2.000   1.066   4.015
 1850SOL    HW2 5563   1.861   0.991   4.056
 1851SOL     OW 5564   2.737   1.646   4.061
 1851SOL    HW1 5565   2.660   1.611   4.007
 1851SOL    HW2 5566   2.705   1.717   4.123
 1852SOL     OW 5567   2.092   2.490   0.113
 1852SOL    HW1 5568   1.999   2.488   0.150
 1852SOL    HW2 5569   2.093   2.451   0.021
 1853SOL     OW 5570   2.087   2.137   0.996
 1853SOL    HW1 5571   2.122   2.120   1.088
 1853SOL    HW2 5572   1.999   2.092   0.984
 1854SOL     OW 5573   1.881   2.230   0.647
 1854SOL    HW1 5574   1.799   2.273   0.686
 1854SOL    HW2 5575   1.853   2.157   0.584
 1855SOL     OW 5576   2.431   3.137   1.165
 1855SOL    HW1 5577   2.338   3.130   1.128
 1855SOL    HW2 5578   2.442   3.226   1.209
 1856SOL     OW 5579   3.417   3.373   0.703
 1856SOL    HW1 5580   3.360   3.357   0.784
 1856SOL    HW2 5581   3.358   3.383   0.623
 1857SOL     OW 5582   2.997   2.565   0.717
 1857SOL    HW1 5583   3.054   2.643   0.692
 1857SOL    HW2 5584   2.937   2.591   0.793
 1858SOL     OW 5585   3.617   2.469   0.231
 1858SOL    HW1 5586   3.605   2.456   0.132
 1858SOL    HW2 5587   3.587   2.388   0.280
 1859SOL     OW 5588   2.630   3.006   1.023
 1859SOL    HW1 5589   2.552   3.023   1.083
 1859SOL    HW2 5590   2.664   3.093   0.987
 1860SOL     OW 5591   2.712   2.660   1.823
 1860SOL    HW1 5592   2.708   2.736   1.888
 1860SOL    HW2 5593   2.734   2.696   1.732
 1861SOL     OW 5594   2.547   2.874   0.665
 1861SOL    HW1 5595   2.616   2.858   0.735
 1861SOL    HW2 5596   2.474   2.931   0.703
 1862SOL     OW 5597   2.548   3.023   1.803
 1862SOL    HW1 5598   2.608   3.102   1.817
 1862SOL    HW2 5599   2.462   3.054   1.762
 1863SOL     OW 5600   2.197   3.297   1.061
 1863SOL    HW1 5601   2.119   3.266   1.008
 1863SOL    HW2 5602   2.255   3.355   1.004
 1864SOL     OW 5603   3.322   3.367   1.339
 1864SOL    HW1 5604   3.346   3.461   1.365
 1864SOL    HW2 5605   3.306   3.313   1.421
 1865SOL     OW 5606   2.300   2.254   1.499
 1865SOL    HW1 5607   2.382   2.198   1.508
 1865SOL    HW2 5608   2.219   2.196   1.503
 1866SOL     OW 5609   3.465   2.309   0.737
 1866SOL    HW1 5610   3.391   2.355   0.687
 1866SOL    HW2 5611   3.516   2.377   0.790
 1867SOL     OW 5612   2.093   3.575   0.483
 1867SOL    HW1 5613   2.127   3.652   0.537
 1867SOL    HW2 5614   2.137   3.575   0.393
 1868SOL     OW 5615   2.989   3.203   1.690
 1868SOL    HW1 5616   3.036   3.203   1.778
 1868SOL    HW2 5617   2.941   3.116   1.679
 1869SOL     OW 5618   2.092   3.296   0.538
 1869SOL    HW1 5619   2.066   3.392   0.538
 1869SOL    HW2 5620   2.021   3.242   0.583
 1870SOL     OW 5621   2.102   2.953   0.886
 1870SOL    HW1 5622   2.116   2.869   0.938
 1870SOL    HW2 5623   2.047   3.017   0.941
 1871SOL     OW 5624   2.482   3.648   1.439
 1871SOL    HW1 5625   2.390   3.631   1.474
 1871SOL    HW2 5626   2.510   3.740   1.465
 1872SOL     OW 5627   2.468   2.826   0.123
 1872SOL    HW1 5628   2.475   2.910   0.069
 1872SOL    HW2 5629   2.514   2.839   0.211
 1873SOL     OW 5630   3.456   1.976   1.480
 1873SOL    HW1 5631   3.438   2.043   1.408
 1873SOL    HW2 5632   3.453   2.022   1.569
 1874SOL     OW 5633   1.984   2.505   0.563
 1874SOL    HW1 5634   1.939   2.417   0.580
 1874SOL    HW2 5635   1.983   2.559   0.647
 1875SOL     OW 5636   3.704   3.629   0.359
 1875SOL    HW1 5637   3.758   3.600   0.439
 1875SOL    HW2 5638   3.734   3.719   0.330
 1876SOL     OW 5639   1.889   3.458   0.117
 1876SOL    HW1 5640   1.870   3.362   0.138
 1876SOL    HW2 5641   1.856   3.516   0.192
 1877SOL     OW 5642   3.551   2.784   0.612
 1877SOL    HW1 5643   3.646   2.755   0.620
 1877SOL    HW2 5644   3.543   2.849   0.537
 1878SOL     OW 5645   3.503   2.970   0.432
 1878SOL    HW1 5646   3.589   2.972   0.380
 1878SOL    HW2 5647   3.517   3.017   0.520
 1879SOL     OW 5648   1.975   2.599   1.597
 1879SOL    HW1 5649   2.063   2.586   1.642
 1879SOL    HW2 5650   1.962   2.696   1.575
 1880SOL     OW 5651   2.475   3.227   0.726
 1880SOL    HW1 5652   2.426   3.140   0.735
 1880SOL    HW2 5653   2.452   3.270   0.639
 1881SOL     OW 5654   3.155   3.090   1.423
 1881SOL    HW1 5655   3.192   3.017   1.365
 1881SOL    HW2 5656   3.207   3.095   1.508
 1882SOL     OW 5657   2.671   1.866   0.502
 1882SOL    HW1 5658   2.711   1.957   0.493
 1882SOL    HW2 5659   2.571   1.874   0.508
 1883SOL     OW 5660   2.059   2.838   1.264
 1883SOL    HW1 5661   2.148   2.793   1.250
 1883SOL    HW2 5662   1.986   2.773   1.245
 1884SOL     OW 5663   3.387   2.861   0.190
 1884SOL    HW1 5664   3.324   2.785   0.203
 1884SOL    HW2 5665   3.435   2.879   0.276
 1885SOL     OW 5666   3.049   3.654   1.616
 1885SOL    HW1 5667   3.073   3.714   1.540
 1885SOL    HW2 5668   3.056   3.559   1.586
 1886SOL     OW 5669   2.179   2.113   1.801
 1886SOL    HW1 5670   2.250   2.184   1.807
 1886SOL    HW2 5671   2.091   2.152   1.829
 1887SOL     OW 5672   3.328   3.279   0.953
 1887SOL    HW1 5673   3.269   3.285   1.033
 1887SOL    HW2 5674   3.313   3.191   0.907
 1888SOL     OW 5675   3.529   3.576   0.572
 1888SOL    HW1 5676   3.488   3.553   0.484
 1888SOL    HW2 5677   3.511   3.502   0.637
 1889SOL     OW 5678   2.460   2.591   0.270
 1889SOL    HW1 5679   2.484   2.660   0.202
 1889SOL    HW2 5680   2.382   2.624   0.324
 1890SOL     OW 5681   3.143   2.207   0.944
 1890SOL    HW1 5682   3.057   2.157   0.931
 1890SOL    HW2 5683   3.205   2.153   1.000
 1891SOL     OW 5684   3.438   3.524   0.307
 1891SOL    HW1 5685   3.527   3.570   0.310
 1891SOL    HW2 5686   3.417   3.500   0.212
 1892SOL     OW 5687   2.669   2.467   1.465
 1892SOL    HW1 5688   2.622   2.464   1.554
 1892SOL    HW2 5689   2.618   2.412   1.399
 1893SOL     OW 5690   3.256   2.331   1.674
 1893SOL    HW1 5691   3.236   2.374   1.762
 1893SOL    HW2 5692   3.334   2.269   1.683
 1894SOL     OW 5693   2.835   2.752   1.572
 1894SOL    HW1 5694   2.881   2.668   1.543
 1894SOL    HW2 5695   2.779   2.786   1.497
 1895SOL     OW 5696   2.853   2.272   1.242
 1895SOL    HW1 5697   2.776   2.306   1.296
 1895SOL    HW2 5698   2.819   2.221   1.163
 1896SOL     OW 5699   2.903   2.563   0.429
 1896SOL    HW1 5700   2.929   2.559   0.525
 1896SOL    HW2 5701   2.818   2.512   0.415
 1897SOL     OW 5702   1.938   2.673   0.789
 1897SOL    HW1 5703   2.037   2.661   0.798
 1897SOL    HW2 5704   1.914   2.768   0.810
 1898SOL     OW 5705   1.992   3.683   1.571
 1898SOL    HW1 5706   1.982   3.668   1.670
 1898SOL    HW2 5707   1.906   3.719   1.535
 1899SOL     OW 5708   2.727   2.210   0.195
 1899SOL    HW1 5709   2.786   2.273   0.146
 1899SOL    HW2 5710   2.746   2.116   0.166
 1900SOL     OW 5711   3.581   2.447   1.831
 1900SOL    HW1 5712   3.555   2.536   1.795
 1900SOL    HW2 5713   3.579   2.379   1.758
 1901SOL     OW 5714   3.224   3.006   0.545
 1901SOL    HW1 5715   3.307   2.977   0.497
 1901SOL    HW2 5716   3.175   3.073   0.489
 1902SOL     OW 5717   2.412   2.058   0.885
 1902SOL    HW1 5718   2.407   2.053   0.985
 1902SOL    HW2 5719   2.414   2.154   0.856
 1903SOL     OW 5720   2.870   3.318   0.477
 1903SOL    HW1 5721   2.824   3.390   0.425
 1903SOL    HW2 5722   2.866   3.338   0.575
 1904SOL     OW 5723   2.213   3.663   0.853
 1904SOL    HW1 5724   2.263   3.577   0.859
 1904SOL    HW2 5725   2.278   3.740   0.850
 1905SOL     OW 5726   3.657   2.928   0.873
 1905SOL    HW1 5727   3.595   2.913   0.797
 1905SOL    HW2 5728   3.605   2.939   0.958
 1906SOL     OW 5729   3.089   3.412   1.506
 1906SOL    HW1 5730   3.095   3.335   1.570
 1906SOL    HW2 5731   3.037   3.386   1.426
 1907SOL     OW 5732   2.183   2.805   0.242
 1907SOL    HW1 5733   2.265   2.844   0.200
 1907SOL    HW2 5734   2.156   2.723   0.193
 1908SOL     OW 5735   3.320   2.597   0.728
 1908SOL    HW1 5736   3.315   2.532   0.803
 1908SOL    HW2 5737   3.400   2.656   0.741
 1909SOL     OW 5738   2.323   3.128   1.727
 1909SOL    HW1 5739   2.273   3.129   1.641
 1909SOL    HW2 5740   2.260   3.110   1.803
 1910SOL     OW 5741   2.973   3.638   0.237
 1910SOL    HW1 5742   2.913   3.576   0.287
 1910SOL    HW2 5743   3.004   3.594   0.152
 1911SOL     OW 5744   2.064   2.147   1.498
 1911SOL    HW1 5745   1.984   2.207   1.485
 1911SOL    HW2 5746   2.054   2.098   1.584
 1912SOL     OW 5747   3.494   3.239   0.081
 1912SOL    HW1 5748   3.462   3.333   0.071
 1912SOL    HW2 5749   3.418   3.176   0.069
 1913SOL     OW 5750   2.326   3.605   0.323
 1913SOL    HW1 5751   2.359   3.644   0.409
 1913SOL    HW2 5752   2.402   3.598   0.258
 1914SOL     OW 5753   3.262   1.969   0.426
 1914SOL    HW1 5754   3.238   1.932   0.336
 1914SOL    HW2 5755   3.361   1.985   0.430
 1915SOL     OW 5756   2.111   3.647   1.241
 1915SOL    HW1 5757   2.168   3.582   1.291
 1915SOL    HW2 5758   2.095   3.614   1.148
 1916SOL     OW 5759   2.802   3.560   0.904
 1916SOL    HW1 5760   2.882   3.503   0.925
 1916SOL    HW2 5761   2.753   3.520   0.827
 1917SOL     OW 5762   2.244   2.562   0.480
 1917SOL    HW1 5763   2.289   2.472   0.477
 1917SOL    HW2 5764   2.150   2.551   0.513
 1918SOL     OW 5765   3.409   2.084   1.729
 1918SOL    HW1 5766   3.404   2.121   1.821
 1918SOL    HW2 5767   3.337   2.015   1.717
 1919SOL     OW 5768   2.643   2.126   1.749
 1919SOL    HW1 5769   2.710   2.065   1.792
 1919SOL    HW2 5770   2.570   2.145   1.814
 1920SOL     OW 5771   2.750   3.376   1.195
 1920SOL    HW1 5772   2.727   3.351   1.101
 1920SOL    HW2 5773   2.811   3.307   1.234
 1921SOL     OW 5774   3.213   2.452   1.433
 1921SOL    HW1 5775   3.241   2.409   1.518
 1921SOL    HW2 5776   3.238   2.548   1.434
 1922SOL     OW 5777   2.665   3.264   0.924
 1922SOL    HW1 5778   2.755   3.278   0.882
 1922SOL    HW2 5779   2.594   3.266   0.853
 1923SOL     OW 5780   2.784   2.365   0.899
 1923SOL    HW1 5781   2.759   2.356   0.803
 1923SOL    HW2 5782   2.832   2.283   0.930
 1924SOL     OW 5783   2.401   1.926   0.512
 1924SOL    HW1 5784   2.320   1.927   0.570
 1924SOL    HW2 5785   2.404   2.009   0.457
 1925SOL     OW 5786   3.296   3.050   0.041
 1925SOL    HW1 5787   3.328   2.974   0.098
 1925SOL    HW2 5788   3.204   3.077   0.071
 1926SOL     OW 5789   2.159   1.897   0.171
 1926SOL    HW1 5790   2.208   1.981   0.150
 1926SOL    HW2 5791   2.221   1.832   0.216
 1927SOL     OW 5792   2.797   2.098   0.480
 1927SOL    HW1 5793   2.749   2.139   0.402
 1927SOL    HW2 5794   2.896   2.096   0.461
 1928SOL     OW 5795   2.938   2.545   1.464
 1928SOL    HW1 5796   2.858   2.484   1.467
 1928SOL    HW2 5797   3.019   2.492   1.440
 1929SOL     OW 5798   3.089   3.432   0.793
 1929SOL    HW1 5799   3.110   3.506   0.728
 1929SOL    HW2 5800   3.157   3.432   0.866
 1930SOL     OW 5801   2.321   3.014   0.741
 1930SOL    HW1 5802   2.250   2.987   0.806
 1930SOL    HW2 5803   2.295   2.986   0.648
 1931SOL     OW 5804   3.133   3.659   0.591
 1931SOL    HW1 5805   3.177   3.723   0.527
 1931SOL    HW2 5806   3.083   3.711   0.661
 1932SOL     OW 5807   2.894   2.411   0.016
 1932SOL    HW1 5808   2.853   2.493  -0.023
 1932SOL    HW2 5809   2.958   2.437   0.089
 1933SOL     OW 5810   1.940   2.418   1.386
 1933SOL    HW1 5811   2.032   2.417   1.345
 1933SOL    HW2 5812   1.934   2.492   1.453
 1934SOL     OW 5813   2.423   2.084   1.147
 1934SOL    HW1 5814   2.461   2.000   1.184
 1934SOL    HW2 5815   2.335   2.103   1.191
 1935SOL     OW 5816   2.728   2.316   0.642
 1935SOL    HW1 5817   2.696   2.388   0.580
 1935SOL    HW2 5818   2.752   2.235   0.589
 1936SOL     OW 5819   2.879   1.901   0.753
 1936SOL    HW1 5820   2.807   1.906   0.684
 1936SOL    HW2 5821   2.855   1.832   0.822
 1937SOL     OW 5822   3.291   3.035   0.867
 1937SOL    HW1 5823   3.236   2.951   0.860
 1937SOL    HW2 5824   3.317   3.064   0.775
 1938SOL     OW 5825   3.328   2.452   0.992
 1938SOL    HW1 5826   3.298   2.357   0.999
 1938SOL    HW2 5827   3.401   2.468   1.058
 1939SOL     OW 5828   3.719   2.695   0.377
 1939SOL    HW1 5829   3.761   2.631   0.441
 1939SOL    HW2 5830   3.681   2.644   0.299
 1940SOL     OW 5831   2.350   3.247   0.174
 1940SOL    HW1 5832   2.263   3.232   0.221
 1940SOL    HW2 5833   2.333   3.273   0.079
 1941SOL     OW 5834   3.526   3.142   0.657
 1941SOL    HW1 5835   3.625   3.150   0.671
 1941SOL    HW2 5836   3.481   3.226   0.688
 1942SOL     OW 5837   3.252   2.437   0.078
 1942SOL    HW1 5838   3.198   2.416   0.159
 1942SOL    HW2 5839   3.343   2.396   0.087
 1943SOL     OW 5840   2.389   2.118   0.328
 1943SOL    HW1 5841   2.416   2.059   0.253
 1943SOL    HW2 5842   2.389   2.213   0.297
 1944SOL     OW 5843   3.616   3.085   1.588
 1944SOL    HW1 5844   3.707   3.046   1.575
 1944SOL    HW2 5845   3.624   3.181   1.612
 1945SOL     OW 5846   2.926   3.209   1.340
 1945SOL    HW1 5847   2.846   3.186   1.395
 1945SOL    HW2 5848   3.009   3.183   1.389
 1946SOL     OW 5849   3.454   3.491   1.625
 1946SOL    HW1 5850   3.481   3.525   1.535
 1946SOL    HW2 5851   3.533   3.453   1.671
 1947SOL     OW 5852   2.973   3.057   1.100
 1947SOL    HW1 5853   2.933   3.101   1.181
 1947SOL    HW2 5854   2.932   3.094   1.017
 1948SOL     OW 5855   3.500   2.961   1.079
 1948SOL    HW1 5856   3.505   3.042   1.138
 1948SOL    HW2 5857   3.414   2.963   1.028
 1949SOL     OW 5858   2.777   1.951   1.402
 1949SOL    HW1 5859   2.802   1.931   1.307
 1949SOL    HW2 5860   2.849   2.007   1.444
 1950SOL     OW 5861   2.842   2.978   1.719
 1950SOL    HW1 5862   2.743   2.984   1.729
 1950SOL    HW2 5863   2.865   2.898   1.663
 1951SOL     OW 5864   2.567   2.912   0.368
 1951SOL    HW1 5865   2.553   2.919   0.467
 1951SOL    HW2 5866   2.651   2.861   0.350
 1952SOL     OW 5867   2.272   2.675   1.251
 1952SOL    HW1 5868   2.358   2.687   1.301
 1952SOL    HW2 5869   2.230   2.588   1.278
 1953SOL     OW 5870   3.136   2.248   1.262
 1953SOL    HW1 5871   3.157   2.322   1.326
 1953SOL    HW2 5872   3.047   2.265   1.219
 1954SOL     OW 5873   1.926   3.426   1.331
 1954SOL    HW1 5874   1.880   3.508   1.297
 1954SOL    HW2 5875   2.024   3.445   1.340
 1955SOL     OW 5876   2.229   2.962   0.501
 1955SOL    HW1 5877   2.222   3.045   0.445
 1955SOL    HW2 5878   2.233   2.882   0.441
 1956SOL     OW 5879   2.428   2.399   0.865
 1956SOL    HW1 5880   2.440   2.465   0.791
 1956SOL    HW2 5881   2.474   2.433   0.948
 1957SOL     OW 5882   3.114   3.210   0.388
 1957SOL    HW1 5883   3.164   3.287   0.428
 1957SOL    HW2 5884   3.019   3.212   0.420
 1958SOL     OW 5885   3.134   3.307   1.142
 1958SOL    HW1 5886   3.181   3.320   1.229
 1958SOL    HW2 5887   3.068   3.233   1.151
 1959SOL     OW 5888   3.444   2.501   0.472
 1959SOL    HW1 5889   3.413   2.562   0.545
 1959SOL    HW2 5890   3.494   2.553   0.403
 1960SOL     OW 5891   2.216   3.372   1.329
 1960SOL    HW1 5892   2.195   3.328   1.242
 1960SOL    HW2 5893   2.313   3.398   1.332
 1961SOL     OW 5894   2.264   2.613   1.598
 1961SOL    HW1 5895   2.332   2.668   1.551
 1961SOL    HW2 5896   2.304   2.525   1.625
 1962SOL     OW 5897   3.449   2.641   1.670
 1962SOL    HW1 5898   3.357   2.679   1.665
 1962SOL    HW2 5899   3.509   2.688   1.605
 1963SOL     OW 5900   2.875   1.967   1.770
 1963SOL    HW1 5901   2.881   2.052   1.718
 1963SOL    HW2 5902   2.907   1.891   1.713
 1964SOL     OW 5903   2.366   1.912   1.740
 1964SOL    HW1 5904   2.324   1.855   1.670
 1964SOL    HW2 5905   2.300   1.981   1.772
 1965SOL     OW 5906   2.435   2.732   1.029
 1965SOL    HW1 5907   2.479   2.821   1.020
 1965SOL    HW2 5908   2.372   2.732   1.106
 1966SOL     OW 5909   3.222   2.724   1.045
 1966SOL    HW1 5910   3.147   2.724   0.979
 1966SOL    HW2 5911   3.259   2.632   1.054
 1967SOL     OW 5912   3.071   2.387   0.275
 1967SOL    HW1 5913   3.084   2.303   0.329
 1967SOL    HW2 5914   3.042   2.461   0.335
 1968SOL     OW 5915   2.169   2.075   1.231
 1968SOL    HW1 5916   2.146   2.112   1.321
 1968SOL    HW2 5917   2.139   1.980   1.225
 1969SOL     OW 5918   1.899   3.172   1.282
 1969SOL    HW1 5919   1.952   3.123   1.350
 1969SOL    HW2 5920   1.921   3.270   1.287
 1970SOL     OW 5921   2.594   2.496   1.064
 1970SOL    HW1 5922   2.653   2.470   0.988
 1970SOL    HW2 5923   2.566   2.592   1.053
 1971SOL     OW 5924   3.590   2.797   1.854
 1971SOL    HW1 5925   3.544   2.790   1.765
 1971SOL    HW2 5926   3.528   2.841   1.920
 1972SOL     OW 5927   2.169   1.925   0.618
 1972SOL    HW1 5928   2.158   2.019   0.651
 1972SOL    HW2 5929   2.164   1.862   0.695
 1973SOL     OW 5930   3.484   2.229   0.374
 1973SOL    HW1 5931   3.486   2.153   0.438
 1973SOL    HW2 5932   3.436   2.306   0.414
 1974SOL     OW 5933   2.885   2.628   0.966
 1974SOL    HW1 5934   2.900   2.649   1.062
 1974SOL    HW2 5935   2.855   2.533   0.957
 1975SOL     OW 5936   2.842   3.435   1.700
 1975SOL    HW1 5937   2.822   3.479   1.612
 1975SOL    HW2 5938   2.881   3.344   1.684
 1976SOL     OW 5939   3.721   3.380   1.605
 1976SOL    HW1 5940   3.735   3.407   1.510
 1976SOL    HW2 5941   3.804   3.402   1.658
 1977SOL     OW 5942   2.212   2.760   1.804
 1977SOL    HW1 5943   2.288   2.804   1.852
 1977SOL    HW2 5944   2.247   2.713   1.722
 1978SOL     OW 5945   3.402   2.136   0.125
 1978SOL    HW1 5946   3.341   2.061   0.148
 1978SOL    HW2 5947   3.424   2.188   0.208
 1979SOL     OW 5948   3.165   2.700   0.042
 1979SOL    HW1 5949   3.199   2.607   0.057
 1979SOL    HW2 5950   3.183   2.727  -0.053
 1980SOL     OW 5951   2.930   3.195   0.849
 1980SOL    HW1 5952   2.937   3.111   0.794
 1980SOL    HW2 5953   2.992   3.264   0.813
 1981SOL     OW 5954   2.181   2.672   0.949
 1981SOL    HW1 5955   2.274   2.708   0.954
 1981SOL    HW2 5956   2.175   2.587   1.001
 1982SOL     OW 5957   2.201   2.371   1.006
 1982SOL    HW1 5958   2.149   2.288   0.989
 1982SOL    HW2 5959   2.278   2.376   0.942
 1983SOL     OW 5960   3.000   2.242   1.678
 1983SOL    HW1 5961   2.955   2.305   1.742
 1983SOL    HW2 5962   3.093   2.273   1.661
 1984SOL     OW 5963   3.022   2.069   1.477
 1984SOL    HW1 5964   3.022   2.133   1.554
 1984SOL    HW2 5965   3.050   2.117   1.394
 1985SOL     OW 5966   1.870   3.188   0.200
 1985SOL    HW1 5967   1.777   3.209   0.169
 1985SOL    HW2 5968   1.880   3.089   0.213
 1986SOL     OW 5969   1.950   3.663   0.927
 1986SOL    HW1 5970   1.908   3.577   0.900
 1986SOL    HW2 5971   2.044   3.666   0.893
 1987SOL     OW 5972   2.366   3.430   0.910
 1987SOL    HW1 5973   2.432   3.504   0.919
 1987SOL    HW2 5974   2.410   3.351   0.868
 1988SOL     OW 5975   2.864   2.658   1.238
 1988SOL    HW1 5976   2.905   2.626   1.324
 1988SOL    HW2 5977   2.768   2.631   1.235
 1989SOL     OW 5978   1.902   2.406   1.114
 1989SOL    HW1 5979   1.987   2.373   1.073
 1989SOL    HW2 5980   1.915   2.421   1.212
 1990SOL     OW 5981   2.051   2.382   1.722
 1990SOL    HW1 5982   2.110   2.342   1.652
 1990SOL    HW2 5983   1.993   2.453   1.681
 1991SOL     OW 5984   3.231   2.812   1.660
 1991SOL    HW1 5985   3.270   2.901   1.680
 1991SOL    HW2 5986   3.241   2.792   1.563
 1992SOL     OW 5987   2.677   2.434   0.325
 1992SOL    HW1 5988   2.684   2.345   0.279
 1992SOL    HW2 5989   2.583   2.468   0.317
 1993SOL     OW 5990   3.519   2.466   1.206
 1993SOL    HW1 5991   3.481   2.397   1.268
 1993SOL    HW2 5992   3.601   2.430   1.162
 1994SOL     OW 5993   2.114   3.426   1.744
 1994SOL    HW1 5994   2.084   3.483   1.820
 1994SOL    HW2 5995   2.107   3.329   1.770
 1995SOL     OW 5996   2.533   2.326   1.269
 1995SOL    HW1 5997   2.499   2.237   1.239
 1995SOL    HW2 5998   2.559   2.380   1.189
 1996SOL     OW 5999   2.792   3.540   1.465
 1996SOL    HW1 6000   2.768   3.522   1.370
 1996SOL    HW2 6001   2.822   3.634   1.475
 1997SOL     OW 6002   2.335   2.362   0.191
 1997SOL    HW1 6003   2.396   2.442   0.195
 1997SOL    HW2 6004   2.240   2.393   0.198
 1998SOL     OW 6005   2.021   2.999   1.466
 1998SOL    HW1 6006   2.043   2.938   1.542
 1998SOL    HW2 6007   2.031   2.950   1.380
 1999SOL     OW 6008   3.209   2.921   1.234
 1999SOL    HW1 6009   3.233   2.858   1.160
 1999SOL    HW2 6010   3.119   2.961   1.216
 2000SOL     OW 6011   3.164   2.717   0.309
 2000SOL    HW1 6012   3.078   2.686   0.351
 2000SOL    HW2 6013   3.160   2.703   0.210
 2001SOL     OW 6014   3.621   3.609   1.154
 2001SOL    HW1 6015   3.682   3.639   1.081
 2001SOL    HW2 6016   3.583   3.520   1.132
 2002SOL     OW 6017   3.114   3.593   1.128
 2002SOL    HW1 6018   3.198   3.598   1.074
 2002SOL    HW2 6019   3.091   3.497   1.146
 2003SOL     OW 6020   1.945   3.120   1.022
 2003SOL    HW1 6021   1.940   3.119   1.122
 2003SOL    HW2 6022   1.862   3.079   0.984
 2004SOL     OW 6023   2.550   3.524   1.716
 2004SOL    HW1 6024   2.494   3.605   1.725
 2004SOL    HW2 6025   2.602   3.528   1.630
 2005SOL     OW 6026   2.765   1.948   0.133
 2005SOL    HW1 6027   2.816   1.949   0.047
 2005SOL    HW2 6028   2.821   1.906   0.204
 2006SOL     OW 6029   3.588   1.997   0.523
 2006SOL    HW1 6030   3.661   1.980   0.456
 2006SOL    HW2 6031   3.557   1.910   0.561
 2007SOL     OW 6032   3.250   3.435   0.477
 2007SOL    HW1 6033   3.317   3.447   0.403
 2007SOL    HW2 6034   3.210   3.524   0.500
 2008SOL     OW 6035   1.992   3.656   1.851
 2008SOL    HW1 6036   1.951   3.582   1.904
 2008SOL    HW2 6037   2.056   3.707   1.909
 2009SOL     OW 6038   3.142   2.789   0.672
 2009SOL    HW1 6039   3.202   2.708   0.674
 2009SOL    HW2 6040   3.182   2.858   0.612
 2010SOL     OW 6041   2.692   3.135   1.422
 2010SOL    HW1 6042   2.687   3.168   1.517
 2010SOL    HW2 6043   2.606   3.154   1.376
 2011SOL     OW 6044   2.534   3.478   0.154
 2011SOL    HW1 6045   2.543   3.488   0.055
 2011SOL    HW2 6046   2.494   3.389   0.175
 2012SOL     OW 6047   3.512   3.582   1.394
 2012SOL    HW1 6048   3.565   3.592   1.310
 2012SOL    HW2 6049   3.485   3.672   1.428
 2013SOL     OW 6050   3.703   2.037   0.963
 2013SOL    HW1 6051   3.742   1.952   0.927
 2013SOL    HW2 6052   3.605   2.039   0.944
 2014SOL     OW 6053   2.125   2.188   0.720
 2014SOL    HW1 6054   2.046   2.239   0.686
 2014SOL    HW2 6055   2.116   2.173   0.818
 2015SOL     OW 6056   3.056   3.474   0.031
 2015SOL    HW1 6057   3.062   3.381   0.068
 2015SOL    HW2 6058   2.997   3.474  -0.049
 2016SOL     OW 6059   2.684   2.864   1.372
 2016SOL    HW1 6060   2.724   2.863   1.280
 2016SOL    HW2 6061   2.694   2.956   1.412
 2017SOL     OW 6062   2.778   2.772   0.291
 2017SOL    HW1 6063   2.841   2.810   0.223
 2017SOL    HW2 6064   2.818   2.689   0.330
 2018SOL     OW 6065   3.366   3.469   0.044
 2018SOL    HW1 6066   3.274   3.506   0.051
 2018SOL    HW2 6067   3.404   3.489  -0.046
 2019SOL     OW 6068   2.234   3.150   1.490
 2019SOL    HW1 6069   2.221   3.243   1.456
 2019SOL    HW2 6070   2.150   3.098   1.477
 2020SOL     OW 6071   3.476   3.154   1.289
 2020SOL    HW1 6072   3.536   3.157   1.369
 2020SOL    HW2 6073   3.401   3.218   1.302
 2021SOL     OW 6074   2.901   2.960   0.696
 2021SOL    HW1 6075   2.831   2.913   0.750
 2021SOL    HW2 6076   2.960   2.892   0.653
 2022SOL     OW 6077   2.876   2.098   0.971
 2022SOL    HW1 6078   2.868   2.062   0.878
 2022SOL    HW2 6079   2.874   2.022   1.036
 2023SOL     OW 6080   2.452   3.349   0.491
 2023SOL    HW1 6081   2.494   3.291   0.421
 2023SOL    HW2 6082   2.408   3.428   0.447
 2024SOL     OW 6083   3.571   2.247   1.381
 2024SOL    HW1 6084   3.644   2.316   1.385
 2024SOL    HW2 6085   3.599   2.172   1.322
 2025SOL     OW 6086   2.117   3.210   0.290
 2025SOL    HW1 6087   2.021   3.211   0.263
 2025SOL    HW2 6088   2.129   3.263   0.374
 2026SOL     OW 6089   1.967   2.875   1.726
 2026SOL    HW1 6090   1.890   2.842   1.780
 2026SOL    HW2 6091   2.052   2.845   1.768
 2027SOL     OW 6092   2.534   2.065   1.489
 2027SOL    HW1 6093   2.624   2.049   1.449
 2027SOL    HW2 6094   2.542   2.070   1.588
 2028SOL     OW 6095   3.302   2.718   1.398
 2028SOL    HW1 6096   3.245   2.770   1.335
 2028SOL    HW2 6097   3.398   2.730   1.374
 2029SOL     OW 6098   1.934   2.028   0.318
 2029SOL    HW1 6099   1.917   2.111   0.264
 2029SOL    HW2 6100   2.024   1.991   0.296
 2030SOL     OW 6101   3.045   3.197   0.119
 2030SOL    HW1 6102   2.946   3.186   0.121
 2030SOL    HW2 6103   3.079   3.212   0.212
 2031SOL     OW 6104   2.475   2.704   1.431
 2031SOL    HW1 6105   2.531   2.785   1.414
 2031SOL    HW2 6106   2.534   2.624   1.434
 2032SOL     OW 6107   3.355   3.629   0.959
 2032SOL    HW1 6108   3.388   3.693   0.890
 2032SOL    HW2 6109   3.421   3.623   1.034
 2033SOL     OW 6110   2.578   2.427   1.708
 2033SOL    HW1 6111   2.597   2.492   1.782
 2033SOL    HW2 6112   2.638   2.347   1.717
 2034SOL     OW 6113   3.312   3.082   1.633
 2034SOL    HW1 6114   3.303   3.072   1.732
 2034SOL    HW2 6115   3.408   3.075   1.607
 2035SOL     OW 6116   2.252   3.603   1.560
 2035SOL    HW1 6117   2.161   3.644   1.558
 2035SOL    HW2 6118   2.245   3.509   1.592
 2036SOL     OW 6119   3.536   2.745   1.254
 2036SOL    HW1 6120   3.509   2.656   1.217
 2036SOL    HW2 6121   3.537   2.813   1.181
 2037SOL     OW 6122   3.087   2.187   0.449
 2037SOL    HW1 6123   3.152   2.113   0.438
 2037SOL    HW2 6124   3.107   2.237   0.533
 2038SOL     OW 6125   2.456   2.607   0.652
 2038SOL    HW1 6126   2.506   2.692   0.633
 2038SOL    HW2 6127   2.368   2.609   0.604
 2039SOL     OW 6128   3.639   2.204   1.642
 2039SOL    HW1 6129   3.622   2.235   1.548
 2039SOL    HW2 6130   3.555   2.167   1.680
 2040SOL     OW 6131   3.592   2.796   1.517
 2040SOL    HW1 6132   3.630   2.887   1.532
 2040SOL    HW2 6133   3.584   2.779   1.418
 2041SOL     OW 6134   2.721   3.236   0.016
 2041SOL    HW1 6135   2.675   3.251   0.104
 2041SOL    HW2 6136   2.765   3.321  -0.014
 2042SOL     OW 6137   2.523   3.652   0.953
 2042SOL    HW1 6138   2.477   3.740   0.940
 2042SOL    HW2 6139   2.622   3.664   0.946
 2043SOL     OW 6140   2.721   2.818   0.861
 2043SOL    HW1 6141   2.775   2.749   0.909
 2043SOL    HW2 6142   2.689   2.887   0.927
 2044SOL     OW 6143   2.945   2.846   0.087
 2044SOL    HW1 6144   2.922   2.899   0.005
 2044SOL    HW2 6145   3.026   2.790   0.068
 2045SOL     OW 6146   3.723   3.431   0.851
 2045SOL    HW1 6147   3.652   3.419   0.781
 2045SOL    HW2 6148   3.724   3.352   0.911
 2046SOL     OW 6149   2.083   3.176   1.844
 2046SOL    HW1 6150   2.018   3.103   1.823
 2046SOL    HW2 6151   2.087   3.190   1.942
 2047SOL     OW 6152   1.941   3.102   0.653
 2047SOL    HW1 6153   1.940   3.055   0.741
 2047SOL    HW2 6154   2.023   3.074   0.602
 2048SOL     OW 6155   2.534   3.253   1.624
 2048SOL    HW1 6156   2.456   3.203   1.662
 2048SOL    HW2 6157   2.531   3.348   1.655
 2049SOL     OW 6158   3.686   2.054   1.227
 2049SOL    HW1 6159   3.682   1.964   1.271
 2049SOL    HW2 6160   3.689   2.043   1.128
 2050SOL     OW 6161   2.290   2.286   0.520
 2050SOL    HW1 6162   2.320   2.214   0.458
 2050SOL    HW2 6163   2.251   2.246   0.603
 2051SOL     OW 6164   3.567   3.349   1.104
 2051SOL    HW1 6165   3.474   3.324   1.077
 2051SOL    HW2 6166   3.593   3.299   1.186
 2052SOL     OW 6167   2.179   2.409   1.280
 2052SOL    HW1 6168   2.217   2.350   1.352
 2052SOL    HW2 6169   2.219   2.383   1.192
 2053SOL     OW 6170   2.674   3.448   0.687
 2053SOL    HW1 6171   2.706   3.458   0.593
 2053SOL    HW2 6172   2.595   3.386   0.689
 2054SOL     OW 6173   3.286   2.076   1.112
 2054SOL    HW1 6174   3.338   2.011   1.167
 2054SOL    HW2 6175   3.237   2.139   1.173
 2055SOL     OW 6176   2.863   1.896   1.154
 2055SOL    HW1 6177   2.800   1.824   1.123
 2055SOL    HW2 6178   2.956   1.860   1.154
 2056SOL     OW 6179   2.632   3.192   0.301
 2056SOL    HW1 6180   2.586   3.105   0.318
 2056SOL    HW2 6181   2.723   3.189   0.342
 2057SOL     OW 6182   2.480   3.429   1.284
 2057SOL    HW1 6183   2.475   3.511   1.341
 2057SOL    HW2 6184   2.569   3.426   1.239
 2058SOL     OW 6185   3.214   1.914   0.168
 2058SOL    HW1 6186   3.249   1.873   0.084
 2058SOL    HW2 6187   3.124   1.876   0.188
 2059SOL     OW 6188   3.162   2.315   0.691
 2059SOL    HW1 6189   3.103   2.395   0.695
 2059SOL    HW2 6190   3.177   2.280   0.784
 2060SOL     OW 6191   3.455   2.083   0.882
 2060SOL    HW1 6192   3.371   2.082   0.936
 2060SOL    HW2 6193   3.457   2.166   0.826
 2061SOL     OW 6194   1.901   2.939   0.300
 2061SOL    HW1 6195   2.000   2.928   0.291
 2061SOL    HW2 6196   1.861   2.853   0.332
 2062SOL     OW 6197   2.737   3.508   0.337
 2062SOL    HW1 6198   2.660   3.473   0.283
 2062SOL    HW2 6199   2.705   3.579   0.399
 2063SOL     OW 6200   2.092   2.490   1.975
 2063SOL    HW1 6201   1.999   2.488   2.012
 2063SOL    HW2 6202   2.093   2.451   1.883
 2064SOL     OW 6203   2.087   2.137   2.858
 2064SOL    HW1 6204   2.122   2.120   2.950
 2064SOL    HW2 6205   1.999   2.092   2.846
 2065SOL     OW 6206   1.881   2.230   2.509
 2065SOL    HW1 6207   1.799   2.273   2.548
 2065SOL    HW2 6208   1.853   2.157   2.446
 2066SOL     OW 6209   2.431   3.137   3.027
 2066SOL    HW1 6210   2.338   3.130   2.990
 2066SOL    HW2 6211   2.442   3.226   3.071
 2067SOL     OW 6212   3.417   3.373   2.565
 2067SOL    HW1 6213   3.360   3.357   2.646
 2067SOL    HW2 6214   3.358   3.383   2.485
 2068SOL     OW 6215   2.997   2.565   2.579
 2068SOL    HW1 6216   3.054   2.643   2.554
 2068SOL    HW2 6217   2.937   2.591   2.655
 2069SOL     OW 6218   3.617   2.469   2.093
 2069SOL    HW1 6219   3.605   2.456   1.994
 2069SOL    HW2 6220   3.587   2.388   2.142
 2070SOL     OW 6221   2.630   3.006   2.885
 2070SOL    HW1 6222   2.552   3.023   2.945
 2070SOL    HW2 6223   2.664   3.093   2.849
 2071SOL     OW 6224   2.712   2.660   3.685
 2071SOL    HW1 6225   2.708   2.736   3.750
 2071SOL    HW2 6226   2.734   2.696   3.594
 2072SOL     OW 6227   2.547   2.874   2.527
 2072SOL    HW1 6228   2.616   2.858   2.597
 2072SOL    HW2 6229   2.474   2.931   2.565
 2073SOL     OW 6230   2.548   3.023   3.665
 2073SOL    HW1 6231   2.608   3.102   3.679
 2073SOL    HW2 6232   2.462   3.054   3.624
 2074SOL     OW 6233   2.197   3.297   2.923
 2074SOL    HW1 6234   2.119   3.266   2.870
 2074SOL    HW2 6235   2.255   3.355   2.866
 2075SOL     OW 6236   3.322   3.367   3.201
 2075SOL    HW1 6237   3.346   3.461   3.227
 2075SOL    HW2 6238   3.306   3.313   3.283
 2076SOL     OW 6239   2.300   2.254   3.361
 2076SOL    HW1 6240   2.382   2.198   3.370
 2076SOL    HW2 6241   2.219   2.196   3.365
 2077SOL     OW 6242   3.465   2.309   2.599
 2077SOL    HW1 6243   3.391   2.355   2.549
 2077SOL    HW2 6244   3.516   2.377   2.652
 2078SOL     OW 6245   2.093   3.575   2.345
 2078SOL    HW1 6246   2.127   3.652   2.399
 2078SOL    HW2 6247   2.137   3.575   2.255
 2079SOL     OW 6248   2.989   3.203   3.552
 2079SOL    HW1 6249   3.036   3.203   3.640
 2079SOL    HW2 6250   2.941   3.116   3.541
 2080SOL     OW 6251   2.092   3.296   2.400
 2080SOL    HW1 6252   2.066   3.392   2.400
 2080SOL    HW2 6253   2.021   3.242   2.445
 2081SOL     OW 6254   2.102   2.953   2.748
 2081SOL    HW1 6255   2.116   2.869   2.800
 2081SOL    HW2 6256   2.047   3.017   2.803
 2082SOL     OW 6257   2.482   3.648   3.301
 2082SOL    HW1 6258   2.390   3.631   3.336
 2082SOL    HW2 6259   2.510   3.740   3.327
 2083SOL     OW 6260   2.468   2.826   1.985
 2083SOL    HW1 6261   2.475   2.910   1.931
 2083SOL    HW2 6262   2.514   2.839   2.073
 2084SOL     OW 6263   3.456   1.976   3.342
 2084SOL    HW1 6264   3.438   2.043   3.270
 2084SOL    HW2 6265   3.453   2.022   3.431
 2085SOL     OW 6266   1.984   2.505   2.425
 2085SOL    HW1 6267   1.939   2.417   2.442
 2085SOL    HW2 6268   1.983   2.559   2.509
 2086SOL     OW 6269   3.704   3.629   2.221
 2086SOL    HW1 6270   3.758   3.600   2.301
 2086SOL    HW2 6271   3.734   3.719   2.192
 2087SOL     OW 6272   1.889   3.458   1.979
 2087SOL    HW1 6273   1.870   3.362   2.000
 2087SOL    HW2 6274   1.856   3.516   2.054
 2088SOL     OW 6275   3.551   2.784   2.474
 2088SOL    HW1 6276   3.646   2.755   2.482
 2088SOL    HW2 6277   3.543   2.849   2.399
 2089SOL     OW 6278   3.503   2.970   2.294
 2089SOL    HW1 6279   3.589   2.972   2.242
 2089SOL    HW2 6280   3.517   3.017   2.382
 2090SOL     OW 6281   1.975   2.599   3.459
 2090SOL    HW1 6282   2.063   2.586   3.504
 2090SOL    HW2 6283   1.962   2.696   3.437
 2091SOL     OW 6284   2.475   3.227   2.588
 2091SOL    HW1 6285   2.426   3.140   2.597
 2091SOL    HW2 6286   2.452   3.270   2.501
 2092SOL     OW 6287   3.155   3.090   3.285
 2092SOL    HW1 6288   3.192   3.017   3.227
 2092SOL    HW2 6289   3.207   3.095   3.370
 2093SOL     OW 6290   2.671   1.866   2.364
 2093SOL    HW1 6291   2.711   1.957   2.355
 2093SOL    HW2 6292   2.571   1.874   2.370
 2094SOL     OW 6293   2.059   2.838   3.126
 2094SOL    HW1 6294   2.148   2.793   3.112
 2094SOL    HW2 6295   1.986   2.773   3.107
 2095SOL     OW 6296   3.387   2.861   2.052
 2095SOL    HW1 6297   3.324   2.785   2.065
 2095SOL    HW2 6298   3.435   2.879   2.138
 2096SOL     OW 6299   3.049   3.654   3.478
 2096SOL    HW1 6300   3.073   3.714   3.402
 2096SOL    HW2 6301   3.056   3.559   3.448
 2097SOL     OW 6302   2.179   2.113   3.663
 2097SOL    HW1 6303   2.250   2.184   3.669
 2097SOL    HW2 6304   2.091   2.152   3.691
 2098SOL     OW 6305   3.328   3.279   2.815
 2098SOL    HW1 6306   3.269   3.285   2.895
 2098SOL    HW2 6307   3.313   3.191   2.769
 2099SOL     OW 6308   3.529   3.576   2.434
 2099SOL    HW1 6309   3.488   3.553   2.346
 2099SOL    HW2 6310   3.511   3.502   2.499
 2100SOL     OW 6311   2.460   2.591   2.132
 2100SOL    HW1 6312   2.484   2.660   2.064
 2100SOL    HW2 6313   2.382   2.624   2.186
 2101SOL     OW 6314   3.143   2.207   2.806
 2101SOL    HW1 6315   3.057   2.157   2.793
 2101SOL    HW2 6316   3.205   2.153   2.862
 2102SOL     OW 6317   3.438   3.524   2.169
 2102SOL    HW1 6318   3.527   3.570   2.172
 2102SOL    HW2 6319   3.417   3.500   2.074
 2103SOL     OW 6320   2.669   2.467   3.327
 2103SOL    HW1 6321   2.622   2.464   3.416
 2103SOL    HW2 6322   2.618   2.412   3.261
 2104SOL     OW 6323   3.256   2.331   3.536
 2104SOL    HW1 6324   3.236   2.374   3.624
 2104SOL    HW2 6325   3.334   2.269   3.545
 2105SOL     OW 6326   2.835   2.752   3.434
 2105SOL    HW1 6327   2.881   2.668   3.405
 2105SOL    HW2 6328   2.779   2.786   3.359
 2106SOL     OW 6329   2.853   2.272   3.104
 2106SOL    HW1 6330   2.776   2.306   3.158
 2106SOL    HW2 6331   2.819   2.221   3.025
 2107SOL     OW 6332   2.903   2.563   2.291
 2107SOL    HW1 6333   2.929   2.559   2.387
 2107SOL    HW2 6334   2.818   2.512   2.277
 2108SOL     OW 6335   1.938   2.673   2.651
 2108SOL    HW1 6336   2.037   2.661   2.660
 2108SOL    HW2 6337   1.914   2.768   2.672
 2109SOL     OW 6338   1.992   3.683   3.433
 2109SOL    HW1 6339   1.982   3.668   3.532
 2109SOL    HW2 6340   1.906   3.719   3.397
 2110SOL     OW 6341   2.727   2.210   2.057
 2110SOL    HW1 6342   2.786   2.273   2.008
 2110SOL    HW2 6343   2.746   2.116   2.028
 2111SOL     OW 6344   3.581   2.447   3.693
 2111SOL    HW1 6345   3.555   2.536   3.657
 2111SOL    HW2 6346   3.579   2.379   3.620
 2112SOL     OW 6347   3.224   3.006   2.407
 2112SOL    HW1 6348   3.307   2.977   2.359
 2112SOL    HW2 6349   3.175   3.073   2.351
 2113SOL     OW 6350   2.412   2.058   2.747
 2113SOL    HW1 6351   2.407   2.053   2.847
 2113SOL    HW2 6352   2.414   2.154   2.718
 2114SOL     OW 6353   2.870   3.318   2.339
 2114SOL    HW1 6354   2.824   3.390   2.287
 2114SOL    HW2 6355   2.866   3.338   2.437
 2115SOL     OW 6356   2.213   3.663   2.715
 2115SOL    HW1 6357   2.263   3.577   2.721
 2115SOL    HW2 6358   2.278   3.740   2.712
 2116SOL     OW 6359   3.657   2.928   2.735
 2116SOL    HW1 6360   3.595   2.913   2.659
 2116SOL    HW2 6361   3.605   2.939   2.820
 2117SOL     OW 6362   3.089   3.412   3.368
 2117SOL    HW1 6363   3.095   3.335   3.432
 2117SOL    HW2 6364   3.037   3.386   3.288
 2118SOL     OW 6365   2.183   2.805   2.104
 2118SOL    HW1 6366   2.265   2.844   2.062
 2118SOL    HW2 6367   2.156   2.723   2.055
 2119SOL     OW 6368   3.320   2.597   2.590
 2119SOL    HW1 6369   3.315   2.532   2.665
 2119SOL    HW2 6370   3.400   2.656   2.603
 2120SOL     OW 6371   2.323   3.128   3.589
 2120SOL    HW1 6372   2.273   3.129   3.503
 2120SOL    HW2 6373   2.260   3.110   3.665
 2121SOL     OW 6374   2.973   3.638   2.099
 2121SOL    HW1 6375   2.913   3.576   2.149
 2121SOL    HW2 6376   3.004   3.594   2.014
 2122SOL     OW 6377   2.064   2.147   3.360
 2122SOL    HW1 6378   1.984   2.207   3.347
 2122SOL    HW2 6379   2.054   2.098   3.446
 2123SOL     OW 6380   3.494   3.239   1.943
 2123SOL    HW1 6381   3.462   3.333   1.933
 2123SOL    HW2 6382   3.418   3.176   1.931
 2124SOL     OW 6383   2.326   3.605   2.185
 2124SOL    HW1 6384   2.359   3.644   2.271
 2124SOL    HW2 6385   2.402   3.598   2.120
 2125SOL     OW 6386   3.262   1.969   2.288
 2125SOL    HW1 6387   3.238   1.932   2.198
 2125SOL    HW2 6388   3.361   1.985   2.292
 2126SOL     OW 6389   2.111   3.647   3.103
 2126SOL    HW1 6390   2.168   3.582   3.153
 2126SOL    HW2 6391   2.095   3.614   3.010
 2127SOL     OW 6392   2.802   3.560   2.766
 2127SOL    HW1 6393   2.882   3.503   2.787
 2127SOL    HW2 6394   2.753   3.520   2.689
 2128SOL     OW 6395   3.409   2.084   3.591
 2128SOL    HW1 6396   3.404   2.121   3.683
 2128SOL    HW2 6397   3.337   2.015   3.579
 2129SOL     OW 6398   2.476   1.984   1.979
 2129SOL    HW1 6399   2.574   1.962   1.986
 2129SOL    HW2 6400   2.445   1.967   1.886
 2130SOL     OW 6401   2.643   2.126   3.611
 2130SOL    HW1 6402   2.710   2.065   3.654
 2130SOL    HW2 6403   2.570   2.145   3.676
 2131SOL     OW 6404   2.750   3.376   3.057
 2131SOL    HW1 6405   2.727   3.351   2.963
 2131SOL    HW2 6406   2.811   3.307   3.096
 2132SOL     OW 6407   3.213   2.452   3.295
 2132SOL    HW1 6408   3.241   2.409   3.380
 2132SOL    HW2 6409   3.238   2.548   3.296
 2133SOL     OW 6410   2.665   3.264   2.786
 2133SOL    HW1 6411   2.755   3.278   2.744
 2133SOL    HW2 6412   2.594   3.266   2.715
 2134SOL     OW 6413   2.784   2.365   2.761
 2134SOL    HW1 6414   2.759   2.356   2.665
 2134SOL    HW2 6415   2.832   2.283   2.792
 2135SOL     OW 6416   2.401   1.926   2.374
 2135SOL    HW1 6417   2.320   1.927   2.432
 2135SOL    HW2 6418   2.404   2.009   2.319
 2136SOL     OW 6419   3.296   3.050   1.903
 2136SOL    HW1 6420   3.328   2.974   1.960
 2136SOL    HW2 6421   3.204   3.077   1.933
 2137SOL     OW 6422   2.159   1.897   2.033
 2137SOL    HW1 6423   2.208   1.981   2.012
 2137SOL    HW2 6424   2.221   1.832   2.078
 2138SOL     OW 6425   2.797   2.098   2.342
 2138SOL    HW1 6426   2.749   2.139   2.264
 2138SOL    HW2 6427   2.896   2.096   2.323
 2139SOL     OW 6428   2.938   2.545   3.326
 2139SOL    HW1 6429   2.858   2.484   3.329
 2139SOL    HW2 6430   3.019   2.492   3.302
 2140SOL     OW 6431   3.089   3.432   2.655
 2140SOL    HW1 6432   3.110   3.506   2.590
 2140SOL    HW2 6433   3.157   3.432   2.728
 2141SOL     OW 6434   2.321   3.014   2.603
 2141SOL    HW1 6435   2.250   2.987   2.668
 2141SOL    HW2 6436   2.295   2.986   2.510
 2142SOL     OW 6437   3.133   3.659   2.453
 2142SOL    HW1 6438   3.177   3.723   2.389
 2142SOL    HW2 6439   3.083   3.711   2.523
 2143SOL     OW 6440   2.894   2.411   1.878
 2143SOL    HW1 6441   2.853   2.493   1.839
 2143SOL    HW2 6442   2.958   2.437   1.951
 2144SOL     OW 6443   1.940   2.418   3.248
 2144SOL    HW1 6444   2.032   2.417   3.207
 2144SOL    HW2 6445   1.934   2.492   3.315
 2145SOL     OW 6446   2.423   2.084   3.009
 2145SOL    HW1 6447   2.461   2.000   3.046
 2145SOL    HW2 6448   2.335   2.103   3.053
 2146SOL     OW 6449   2.879   1.901   2.615
 2146SOL    HW1 6450   2.807   1.906   2.546
 2146SOL    HW2 6451   2.855   1.832   2.684
 2147SOL     OW 6452   3.291   3.035   2.729
 2147SOL    HW1 6453   3.236   2.951   2.722
 2147SOL    HW2 6454   3.317   3.064   2.637
 2148SOL     OW 6455   3.328   2.452   2.854
 2148SOL    HW1 6456   3.298   2.357   2.861
 2148SOL    HW2 6457   3.401   2.468   2.920
 2149SOL     OW 6458   3.719   2.695   2.239
 2149SOL    HW1 6459   3.761   2.631   2.303
 2149SOL    HW2 6460   3.681   2.644   2.161
 2150SOL     OW 6461   2.350   3.247   2.036
 2150SOL    HW1 6462   2.263   3.232   2.083
 2150SOL    HW2 6463   2.333   3.273   1.941
 2151SOL     OW 6464   3.526   3.142   2.519
 2151SOL    HW1 6465   3.625   3.150   2.533
 2151SOL    HW2 6466   3.481   3.226   2.550
 2152SOL     OW 6467   3.252   2.437   1.940
 2152SOL    HW1 6468   3.198   2.416   2.021
 2152SOL    HW2 6469   3.343   2.396   1.949
 2153SOL     OW 6470   2.389   2.118   2.190
 2153SOL    HW1 6471   2.416   2.059   2.115
 2153SOL    HW2 6472   2.389   2.213   2.159
 2154SOL     OW 6473   3.616   3.085   3.450
 2154SOL    HW1 6474   3.707   3.046   3.437
 2154SOL    HW2 6475   3.624   3.181   3.474
 2155SOL     OW 6476   2.926   3.209   3.202
 2155SOL    HW1 6477   2.846   3.186   3.257
 2155SOL    HW2 6478   3.009   3.183   3.251
 2156SOL     OW 6479   3.454   3.491   3.487
 2156SOL    HW1 6480   3.481   3.525   3.397
 2156SOL    HW2 6481   3.533   3.453   3.533
 2157SOL     OW 6482   2.973   3.057   2.962
 2157SOL    HW1 6483   2.933   3.101   3.043
 2157SOL    HW2 6484   2.932   3.094   2.879
 2158SOL     OW 6485   3.500   2.961   2.941
 2158SOL    HW1 6486   3.505   3.042   3.000
 2158SOL    HW2 6487   3.414   2.963   2.890
 2159SOL     OW 6488   2.777   1.951   3.264
 2159SOL    HW1 6489   2.802   1.931   3.169
 2159SOL    HW2 6490   2.849   2.007   3.306
 2160SOL     OW 6491   2.842   2.978   3.581
 2160SOL    HW1 6492   2.743   2.984   3.591
 2160SOL    HW2 6493   2.865   2.898   3.525
 2161SOL     OW 6494   2.567   2.912   2.230
 2161SOL    HW1 6495   2.553   2.919   2.329
 2161SOL    HW2 6496   2.651   2.861   2.212
 2162SOL     OW 6497   2.272   2.675   3.113
 2162SOL    HW1 6498   2.358   2.687   3.163
 2162SOL    HW2 6499   2.230   2.588   3.140
 2163SOL     OW 6500   3.136   2.248   3.124
 2163SOL    HW1 6501   3.157   2.322   3.188
 2163SOL    HW2 6502   3.047   2.265   3.081
 2164SOL     OW 6503   1.926   3.426   3.193
 2164SOL    HW1 6504   1.880   3.508   3.159
 2164SOL    HW2 6505   2.024   3.445   3.202
 2165SOL     OW 6506   2.229   2.962   2.363
 2165SOL    HW1 6507   2.222   3.045   2.307
 2165SOL    HW2 6508   2.233   2.882   2.303
 2166SOL     OW 6509   3.114   3.210   2.250
 2166SOL    HW1 6510   3.164   3.287   2.290
 2166SOL    HW2 6511   3.019   3.212   2.282
 2167SOL     OW 6512   3.134   3.307   3.004
 2167SOL    HW1 6513   3.181   3.320   3.091
 2167SOL    HW2 6514   3.068   3.233   3.013
 2168SOL     OW 6515   3.444   2.501   2.334
 2168SOL    HW1 6516   3.413   2.562   2.407
 2168SOL    HW2 6517   3.494   2.553   2.265
 2169SOL     OW 6518   2.216   3.372   3.191
 2169SOL    HW1 6519   2.195   3.328   3.104
 2169SOL    HW2 6520   2.313   3.398   3.194
 2170SOL     OW 6521   2.264   2.613   3.460
 2170SOL    HW1 6522   2.332   2.668   3.413
 2170SOL    HW2 6523   2.304   2.525   3.487
 2171SOL     OW 6524   3.449   2.641   3.532
 2171SOL    HW1 6525   3.357   2.679   3.527
 2171SOL    HW2 6526   3.509   2.688   3.467
 2172SOL     OW 6527   2.875   1.967   3.632
 2172SOL    HW1 6528   2.881   2.052   3.580
 2172SOL    HW2 6529   2.907   1.891   3.575
 2173SOL     OW 6530   2.366   1.912   3.602
 2173SOL    HW1 6531   2.324   1.855   3.532
 2173SOL    HW2 6532   2.300   1.981   3.634
 2174SOL     OW 6533   2.435   2.732   2.891
 2174SOL    HW1 6534   2.479   2.821   2.882
 2174SOL    HW2 6535   2.372   2.732   2.968
 2175SOL     OW 6536   3.222   2.724   2.907
 2175SOL    HW1 6537   3.147   2.724   2.841
 2175SOL    HW2 6538   3.259   2.632   2.916
 2176SOL     OW 6539   3.071   2.387   2.137
 2176SOL    HW1 6540   3.084   2.303   2.191
 2176SOL    HW2 6541   3.042   2.461   2.197
 2177SOL     OW 6542   2.169   2.075   3.093
 2177SOL    HW1 6543   2.146   2.112   3.183
 2177SOL    HW2 6544   2.139   1.980   3.087
 2178SOL     OW 6545   1.899   3.172   3.144
 2178SOL    HW1 6546   1.952   3.123   3.212
 2178SOL    HW2 6547   1.921   3.270   3.149
 2179SOL     OW 6548   2.594   2.496   2.926
 2179SOL    HW1 6549   2.653   2.470   2.850
 2179SOL    HW2 6550   2.566   2.592   2.915
 2180SOL     OW 6551   3.590   2.797   3.716
 2180SOL    HW1 6552   3.544   2.790   3.627
 2180SOL    HW2 6553   3.528   2.841   3.782
 2181SOL     OW 6554   2.169   1.925   2.480
 2181SOL    HW1 6555   2.158   2.019   2.513
 2181SOL    HW2 6556   2.164   1.862   2.557
 2182SOL     OW 6557   3.484   2.229   2.236
 2182SOL    HW1 6558   3.486   2.153   2.300
 2182SOL    HW2 6559   3.436   2.306   2.276
 2183SOL     OW 6560   2.885   2.628   2.828
 2183SOL    HW1 6561   2.900   2.649   2.924
 2183SOL    HW2 6562   2.855   2.533   2.819
 2184SOL     OW 6563   2.842   3.435   3.562
 2184SOL    HW1 6564   2.822   3.479   3.474
 2184SOL    HW2 6565   2.881   3.344   3.546
 2185SOL     OW 6566   3.721   3.380   3.467
 2185SOL    HW1 6567   3.735   3.407   3.372
 2185SOL    HW2 6568   3.804   3.402   3.520
 2186SOL     OW 6569   2.212   2.760   3.666
 2186SOL    HW1 6570   2.288   2.804   3.714
 2186SOL    HW2 6571   2.247   2.713   3.584
 2187SOL     OW 6572   3.402   2.136   1.987
 2187SOL    HW1 6573   3.341   2.061   2.010
 2187SOL    HW2 6574   3.424   2.188   2.070
 2188SOL     OW 6575   3.165   2.700   1.904
 2188SOL    HW1 6576   3.199   2.607   1.919
 2188SOL    HW2 6577   3.183   2.727   1.809
 2189SOL     OW 6578   2.930   3.195   2.711
 2189SOL    HW1 6579   2.937   3.111   2.656
 2189SOL    HW2 6580   2.992   3.264   2.675
 2190SOL     OW 6581   2.181   2.672   2.811
 2190SOL    HW1 6582   2.274   2.708   2.816
 2190SOL    HW2 6583   2.175   2.587   2.863
 2191SOL     OW 6584   2.201   2.371   2.868
 2191SOL    HW1 6585   2.149   2.288   2.851
 2191SOL    HW2 6586   2.278   2.376   2.804
 2192SOL     OW 6587   3.000   2.242   3.540
 2192SOL    HW1 6588   2.955   2.305   3.604
 2192SOL    HW2 6589   3.093   2.273   3.523
 2193SOL     OW 6590   3.022   2.069   3.339
 2193SOL    HW1 6591   3.022   2.133   3.416
 2193SOL    HW2 6592   3.050   2.117   3.256
 2194SOL     OW 6593   1.870   3.188   2.062
 2194SOL    HW1 6594   1.777   3.209   2.031
 2194SOL    HW2 6595   1.880   3.089   2.075
 2195SOL     OW 6596   1.950   3.663   2.789
 2195SOL    HW1 6597   1.908   3.577   2.762
 2195SOL    HW2 6598   2.044   3.666   2.755
 2196SOL     OW 6599   2.366   3.430   2.772
 2196SOL    HW1 6600   2.432   3.504   2.781
 2196SOL    HW2 6601   2.410   3.351   2.730
 2197SOL     OW 6602   2.864   2.658   3.100
 2197SOL    HW1 6603   2.905   2.626   3.186
 2197SOL    HW2 6604   2.768   2.631   3.097
 2198SOL     OW 6605   1.902   2.406   2.976
 2198SOL    HW1 6606   1.987   2.373   2.935
 2198SOL    HW2 6607   1.915   2.421   3.074
 2199SOL     OW 6608   2.051   2.382   3.584
 2199SOL    HW1 6609   2.110   2.342   3.514
 2199SOL    HW2 6610   1.993   2.453   3.543
 2200SOL     OW 6611   3.231   2.812   3.522
 2200SOL    HW1 6612   3.270   2.901   3.542
 2200SOL    HW2 6613   3.241   2.792   3.425
 2201SOL     OW 6614   2.677   2.434   2.187
 2201SOL    HW1 6615   2.684   2.345   2.141
 2201SOL    HW2 6616   2.583   2.468   2.179
 2202SOL     OW 6617   3.519   2.466   3.068
 2202SOL    HW1 6618   3.481   2.397   3.130
 2202SOL    HW2 6619   3.601   2.430   3.024
 2203SOL     OW 6620   2.114   3.426   3.606
 2203SOL    HW1 6621   2.084   3.483   3.682
 2203SOL    HW2 6622   2.107   3.329   3.632
 2204SOL     OW 6623   2.533   2.326   3.131
 2204SOL    HW1 6624   2.499   2.237   3.101
 2204SOL    HW2 6625   2.559   2.380   3.051
 2205SOL     OW 6626   2.792   3.540   3.327
 2205SOL    HW1 6627   2.768   3.522   3.232
 2205SOL    HW2 6628   2.822   3.634   3.337
 2206SOL     OW 6629   2.021   2.999   3.328
 2206SOL    HW1 6630   2.043   2.938   3.404
 2206SOL    HW2 6631   2.031   2.950   3.242
 2207SOL     OW 6632   3.209   2.921   3.096
 2207SOL    HW1 6633   3.233   2.858   3.022
 2207SOL    HW2 6634   3.119   2.961   3.078
 2208SOL     OW 6635   3.164   2.717   2.171
 2208SOL    HW1 6636   3.078   2.686   2.213
 2208SOL    HW2 6637   3.160   2.703   2.072
 2209SOL     OW 6638   3.621   3.609   3.016
 2209SOL    HW1 6639   3.682   3.639   2.943
 2209SOL    HW2 6640   3.583   3.520   2.994
 2210SOL     OW 6641   3.114   3.593   2.990
 2210SOL    HW1 6642   3.198   3.598   2.936
 2210SOL    HW2 6643   3.091   3.497   3.008
 2211SOL     OW 6644   1.945   3.120   2.884
 2211SOL    HW1 6645   1.940   3.119   2.984
 2211SOL    HW2 6646   1.862   3.079   2.846
 2212SOL     OW 6647   2.550   3.524   3.578
 2212SOL    HW1 6648   2.494   3.605   3.587
 2212SOL    HW2 6649   2.602   3.528   3.492
 2213SOL     OW 6650   3.588   1.997   2.385
 2213SOL    HW1 6651   3.661   1.980   2.318
 2213SOL    HW2 6652   3.557   1.910   2.423
 2214SOL     OW 6653   3.250   3.435   2.339
 2214SOL    HW1 6654   3.317   3.447   2.265
 2214SOL    HW2 6655   3.210   3.524   2.362
 2215SOL     OW 6656   1.992   3.656   3.713
 2215SOL    HW1 6657   1.951   3.582   3.766
 2215SOL    HW2 6658   2.056   3.707   3.771
 2216SOL     OW 6659   3.142   2.789   2.534
 2216SOL    HW1 6660   3.202   2.708   2.536
 2216SOL    HW2 6661   3.182   2.858   2.474
 2217SOL     OW 6662   2.692   3.135   3.284
 2217SOL    HW1 6663   2.687   3.168   3.379
 2217SOL    HW2 6664   2.606   3.154   3.238
 2218SOL     OW 6665   2.534   3.478   2.016
 2218SOL    HW1 6666   2.543   3.488   1.917
 2218SOL    HW2 6667   2.494   3.389   2.037
 2219SOL     OW 6668   3.512   3.582   3.256
 2219SOL    HW1 6669   3.565   3.592   3.172
 2219SOL    HW2 6670   3.485   3.672   3.290
 2220SOL     OW 6671   3.703   2.037   2.825
 2220SOL    HW1 6672   3.742   1.952   2.789
 2220SOL    HW2 6673   3.605   2.039   2.806
 2221SOL     OW 6674   2.125   2.188   2.582
 2221SOL    HW1 6675   2.046   2.239   2.548
 2221SOL    HW2 6676   2.116   2.173   2.680
 2222SOL     OW 6677   3.056   3.474   1.893
 2222SOL    HW1 6678   3.062   3.381   1.930
 2222SOL    HW2 6679   2.997   3.474   1.813
 2223SOL     OW 6680   2.684   2.864   3.234
 2223SOL    HW1 6681   2.724   2.863   3.142
 2223SOL    HW2 6682   2.694   2.956   3.274
 2224SOL     OW 6683   2.778   2.772   2.153
 2224SOL    HW1 6684   2.841   2.810   2.085
 2224SOL    HW2 6685   2.818   2.689   2.192
 2225SOL     OW 6686   3.366   3.469   1.906
 2225SOL    HW1 6687   3.274   3.506   1.913
 2225SOL    HW2 6688   3.404   3.489   1.816
 2226SOL     OW 6689   2.234   3.150   3.352
 2226SOL    HW1 6690   2.221   3.243   3.318
 2226SOL    HW2 6691   2.150   3.098   3.339
 2227SOL     OW 6692   3.476   3.154   3.151
 2227SOL    HW1 6693   3.536   3.157   3.231
 2227SOL    HW2 6694   3.401   3.218   3.164
 2228SOL     OW 6695   2.901   2.960   2.558
 2228SOL    HW1 6696   2.831   2.913   2.612
 2228SOL    HW2 6697   2.960   2.892   2.515
 2229SOL     OW 6698   2.876   2.098   2.833
 2229SOL    HW1 6699   2.868   2.062   2.740
 2229SOL    HW2 6700   2.874   2.022   2.898
 2230SOL     OW 6701   2.452   3.349   2.353
 2230SOL    HW1 6702   2.494   3.291   2.283
 2230SOL    HW2 6703   2.408   3.428   2.309
 2231SOL     OW 6704   3.571   2.247   3.243
 2231SOL    HW1 6705   3.644   2.316   3.247
 2231SOL    HW2 6706   3.599   2.172   3.184
 2232SOL     OW 6707   2.117   3.210   2.152
 2232SOL    HW1 6708   2.021   3.211   2.125
 2232SOL    HW2 6709   2.129   3.263   2.236
 2233SOL     OW 6710   1.967   2.875   3.588
 2233SOL    HW1 6711   1.890   2.842   3.642
 2233SOL    HW2 6712   2.052   2.845   3.630
 2234SOL     OW 6713   2.534   2.065   3.351
 2234SOL    HW1 6714   2.624   2.049   3.311
 2234SOL    HW2 6715   2.542   2.070   3.450
 2235SOL     OW 6716   1.937   2.207   1.895
 2235SOL    HW1 6717   1.845   2.179   1.866
 2235SOL    HW2 6718   1.968   2.284   1.839
 2236SOL     OW 6719   3.302   2.718   3.260
 2236SOL    HW1 6720   3.245   2.770   3.197
 2236SOL    HW2 6721   3.398   2.730   3.236
 2237SOL     OW 6722   1.934   2.028   2.180
 2237SOL    HW1 6723   1.917   2.111   2.126
 2237SOL    HW2 6724   2.024   1.991   2.158
 2238SOL     OW 6725   3.045   3.197   1.981
 2238SOL    HW1 6726   2.946   3.186   1.983
 2238SOL    HW2 6727   3.079   3.212   2.074
 2239SOL     OW 6728   2.475   2.704   3.293
 2239SOL    HW1 6729   2.531   2.785   3.276
 2239SOL    HW2 6730   2.534   2.624   3.296
 2240SOL     OW 6731   3.355   3.629   2.821
 2240SOL    HW1 6732   3.388   3.693   2.752
 2240SOL    HW2 6733   3.421   3.623   2.896
 2241SOL     OW 6734   2.578   2.427   3.570
 2241SOL    HW1 6735   2.597   2.492   3.644
 2241SOL    HW2 6736   2.638   2.347   3.579
 2242SOL     OW 6737   3.312   3.082   3.495
 2242SOL    HW1 6738   3.303   3.072   3.594
 2242SOL    HW2 6739   3.408   3.075   3.469
 2243SOL     OW 6740   2.252   3.603   3.422
 2243SOL    HW1 6741   2.161   3.644   3.420
 2243SOL    HW2 6742   2.245   3.509   3.454
 2244SOL     OW 6743   3.536   2.745   3.116
 2244SOL    HW1 6744   3.509   2.656   3.079
 2244SOL    HW2 6745   3.537   2.813   3.043
 2245SOL     OW 6746   3.087   2.187   2.311
 2245SOL    HW1 6747   3.152   2.113   2.300
 2245SOL    HW2 6748   3.107   2.237   2.395
 2246SOL     OW 6749   3.639   2.204   3.504
 2246SOL    HW1 6750   3.622   2.235   3.410
 2246SOL    HW2 6751   3.555   2.167   3.542
 2247SOL     OW 6752   3.592   2.796   3.379
 2247SOL    HW1 6753   3.630   2.887   3.394
 2247SOL    HW2 6754   3.584   2.779   3.280
 2248SOL     OW 6755   2.721   3.236   1.878
 2248SOL    HW1 6756   2.675   3.251   1.966
 2248SOL    HW2 6757   2.765   3.321   1.848
 2249SOL     OW 6758   2.523   3.652   2.815
 2249SOL    HW1 6759   2.477   3.740   2.802
 2249SOL    HW2 6760   2.622   3.664   2.808
 2250SOL     OW 6761   2.721   2.818   2.723
 2250SOL    HW1 6762   2.775   2.749   2.771
 2250SOL    HW2 6763   2.689   2.887   2.789
 2251SOL     OW 6764   2.945   2.846   1.949
 2251SOL    HW1 6765   2.922   2.899   1.867
 2251SOL    HW2 6766   3.026   2.790   1.930
 2252SOL     OW 6767   3.723   3.431   2.713
 2252SOL    HW1 6768   3.652   3.419   2.643
 2252SOL    HW2 6769   3.724   3.352   2.773
 2253SOL     OW 6770   2.083   3.176   3.706
 2253SOL    HW1 6771   2.018   3.103   3.685
 2253SOL    HW2 6772   2.087   3.190   3.804
 2254SOL     OW 6773   1.941   3.102   2.515
 2254SOL    HW1 6774   1.940   3.055   2.603
 2254SOL    HW2 6775   2.023   3.074   2.464
 2255SOL     OW 6776   2.534   3.253   3.486
 2255SOL    HW1 6777   2.456   3.203   3.524
 2255SOL    HW2 6778   2.531   3.348   3.517
 2256SOL     OW 6779   3.686   2.054   3.089
 2256SOL    HW1 6780   3.682   1.964   3.133
 2256SOL    HW2 6781   3.689   2.043   2.990
 2257SOL     OW 6782   3.567   3.349   2.966
 2257SOL    HW1 6783   3.474   3.324   2.939
 2257SOL    HW2 6784   3.593   3.299   3.048
 2258SOL     OW 6785   2.179   2.409   3.142
 2258SOL    HW1 6786   2.217   2.350   3.214
 2258SOL    HW2 6787   2.219   2.383   3.054
 2259SOL     OW 6788   2.674   3.448   2.549
 2259SOL    HW1 6789   2.706   3.458   2.455
 2259SOL    HW2 6790   2.595   3.386   2.551
 2260SOL     OW 6791   3.286   2.076   2.974
 2260SOL    HW1 6792   3.338   2.011   3.029
 2260SOL    HW2 6793   3.237   2.139   3.035
 2261SOL     OW 6794   2.863   1.896   3.016
 2261SOL    HW1 6795   2.800   1.824   2.985
 2261SOL    HW2 6796   2.956   1.860   3.016
 2262SOL     OW 6797   2.632   3.192   2.163
 2262SOL    HW1 6798   2.586   3.105   2.180
 2262SOL    HW2 6799   2.723   3.189   2.204
 2263SOL     OW 6800   2.480   3.429   3.146
 2263SOL    HW1 6801   2.475   3.511   3.203
 2263SOL    HW2 6802   2.569   3.426   3.101
 2264SOL     OW 6803   3.214   1.914   2.030
 2264SOL    HW1 6804   3.249   1.873   1.946
 2264SOL    HW2 6805   3.124   1.876   2.050
 2265SOL     OW 6806   3.162   2.315   2.553
 2265SOL    HW1 6807   3.103   2.395   2.557
 2265SOL    HW2 6808   3.177   2.280   2.646
 2266SOL     OW 6809   3.455   2.083   2.744
 2266SOL    HW1 6810   3.371   2.082   2.798
 2266SOL    HW2 6811   3.457   2.166   2.688
 2267SOL     OW 6812   1.901   2.939   2.162
 2267SOL    HW1 6813   2.000   2.928   2.153
 2267SOL    HW2 6814   1.861   2.853   2.194
 2268SOL     OW 6815   2.737   3.508   2.199
 2268SOL    HW1 6816   2.660   3.473   2.145
 2268SOL    HW2 6817   2.705   3.579   2.261
 2269SOL     OW 6818   2.092   2.490   3.837
 2269SOL    HW1 6819   1.999   2.488   3.874
 2269SOL    HW2 6820   2.093   2.451   3.745
 2270SOL     OW 6821   2.087   2.137   4.720
 2270SOL    HW1 6822   2.122   2.120   4.812
 2270SOL    HW2 6823   1.999   2.092   4.708
 2271SOL     OW 6824   1.881   2.230   4.371
 2271SOL    HW1 6825   1.799   2.273   4.410
 2271SOL    HW2 6826   1.853   2.157   4.308
 2272SOL     OW 6827   3.417   3.373   4.427
 2272SOL    HW1 6828   3.360   3.357   4.508
 2272SOL    HW2 6829   3.358   3.383   4.347
 2273SOL     OW 6830   2.997   2.565   4.441
 2273SOL    HW1 6831   3.054   2.643   4.416
 2273SOL    HW2 6832   2.937   2.591   4.517
 2274SOL     OW 6833   3.617   2.469   3.955
 2274SOL    HW1 6834   3.605   2.456   3.856
 2274SOL    HW2 6835   3.587   2.388   4.004
 2275SOL     OW 6836   2.547   2.874   4.389
 2275SOL    HW1 6837   2.616   2.858   4.459
 2275SOL    HW2 6838   2.474   2.931   4.427
 2276SOL     OW 6839   3.465   2.309   4.461
 2276SOL    HW1 6840   3.391   2.355   4.411
 2276SOL    HW2 6841   3.516   2.377   4.514
 2277SOL     OW 6842   2.093   3.575   4.207
 2277SOL    HW1 6843   2.127   3.652   4.261
 2277SOL    HW2 6844   2.137   3.575   4.117
 2278SOL     OW 6845   2.092   3.296   4.262
 2278SOL    HW1 6846   2.066   3.392   4.262
 2278SOL    HW2 6847   2.021   3.242   4.307
 2279SOL     OW 6848   2.102   2.953   4.610
 2279SOL    HW1 6849   2.116   2.869   4.662
 2279SOL    HW2 6850   2.047   3.017   4.665
 2280SOL     OW 6851   2.468   2.826   3.847
 2280SOL    HW1 6852   2.475   2.910   3.793
 2280SOL    HW2 6853   2.514   2.839   3.935
 2281SOL     OW 6854   1.984   2.505   4.287
 2281SOL    HW1 6855   1.939   2.417   4.304
 2281SOL    HW2 6856   1.983   2.559   4.371
 2282SOL     OW 6857   3.704   3.629   4.083
 2282SOL    HW1 6858   3.758   3.600   4.163
 2282SOL    HW2 6859   3.734   3.719   4.054
 2283SOL     OW 6860   1.889   3.458   3.841
 2283SOL    HW1 6861   1.870   3.362   3.862
 2283SOL    HW2 6862   1.856   3.516   3.916
 2284SOL     OW 6863   3.551   2.784   4.336
 2284SOL    HW1 6864   3.646   2.755   4.344
 2284SOL    HW2 6865   3.543   2.849   4.261
 2285SOL     OW 6866   3.503   2.970   4.156
 2285SOL    HW1 6867   3.589   2.972   4.104
 2285SOL    HW2 6868   3.517   3.017   4.244
 2286SOL     OW 6869   2.475   3.227   4.450
 2286SOL    HW1 6870   2.426   3.140   4.459
 2286SOL    HW2 6871   2.452   3.270   4.363
 2287SOL     OW 6872   2.671   1.866   4.226
 2287SOL    HW1 6873   2.711   1.957   4.217
 2287SOL    HW2 6874   2.571   1.874   4.232
 2288SOL     OW 6875   3.387   2.861   3.914
 2288SOL    HW1 6876   3.324   2.785   3.927
 2288SOL    HW2 6877   3.435   2.879   4.000
 2289SOL     OW 6878   3.328   3.279   4.677
 2289SOL    HW1 6879   3.269   3.285   4.757
 2289SOL    HW2 6880   3.313   3.191   4.631
 2290SOL     OW 6881   3.529   3.576   4.296
 2290SOL    HW1 6882   3.488   3.553   4.208
 2290SOL    HW2 6883   3.511   3.502   4.361
 2291SOL     OW 6884   2.460   2.591   3.994
 2291SOL    HW1 6885   2.484   2.660   3.926
 2291SOL    HW2 6886   2.382   2.624   4.048
 2292SOL     OW 6887   3.143   2.207   4.668
 2292SOL    HW1 6888   3.057   2.157   4.655
 2292SOL    HW2 6889   3.205   2.153   4.724
 2293SOL     OW 6890   3.438   3.524   4.031
 2293SOL    HW1 6891   3.527   3.570   4.034
 2293SOL    HW2 6892   3.417   3.500   3.936
 2294SOL     OW 6893   2.903   2.563   4.153
 2294SOL    HW1 6894   2.929   2.559   4.249
 2294SOL    HW2 6895   2.818   2.512   4.139
 2295SOL     OW 6896   1.938   2.673   4.513
 2295SOL    HW1 6897   2.037   2.661   4.522
 2295SOL    HW2 6898   1.914   2.768   4.534
 2296SOL     OW 6899   2.727   2.210   3.919
 2296SOL    HW1 6900   2.786   2.273   3.870
 2296SOL    HW2 6901   2.746   2.116   3.890
 2297SOL     OW 6902   3.224   3.006   4.269
 2297SOL    HW1 6903   3.307   2.977   4.221
 2297SOL    HW2 6904   3.175   3.073   4.213
 2298SOL     OW 6905   2.412   2.058   4.609
 2298SOL    HW1 6906   2.407   2.053   4.709
 2298SOL    HW2 6907   2.414   2.154   4.580
 2299SOL     OW 6908   2.870   3.318   4.201
 2299SOL    HW1 6909   2.824   3.390   4.149
 2299SOL    HW2 6910   2.866   3.338   4.299
 2300SOL     OW 6911   2.213   3.663   4.577
 2300SOL    HW1 6912   2.263   3.577   4.583
 2300SOL    HW2 6913   2.278   3.740   4.574
 2301SOL     OW 6914   3.657   2.928   4.597
 2301SOL    HW1 6915   3.595   2.913   4.521
 2301SOL    HW2 6916   3.605   2.939   4.682
 2302SOL     OW 6917   2.183   2.805   3.966
 2302SOL    HW1 6918   2.265   2.844   3.924
 2302SOL    HW2 6919   2.156   2.723   3.917
 2303SOL     OW 6920   3.320   2.597   4.452
 2303SOL    HW1 6921   3.315   2.532   4.527
 2303SOL    HW2 6922   3.400   2.656   4.465
 2304SOL     OW 6923   2.973   3.638   3.961
 2304SOL    HW1 6924   2.913   3.576   4.011
 2304SOL    HW2 6925   3.004   3.594   3.876
 2305SOL     OW 6926   3.494   3.239   3.805
 2305SOL    HW1 6927   3.462   3.333   3.795
 2305SOL    HW2 6928   3.418   3.176   3.793
 2306SOL     OW 6929   2.326   3.605   4.047
 2306SOL    HW1 6930   2.359   3.644   4.133
 2306SOL    HW2 6931   2.402   3.598   3.982
 2307SOL     OW 6932   3.262   1.969   4.150
 2307SOL    HW1 6933   3.238   1.932   4.060
 2307SOL    HW2 6934   3.361   1.985   4.154
 2308SOL     OW 6935   2.244   2.562   4.204
 2308SOL    HW1 6936   2.289   2.472   4.201
 2308SOL    HW2 6937   2.150   2.551   4.237
 2309SOL     OW 6938   2.476   1.984   3.841
 2309SOL    HW1 6939   2.574   1.962   3.848
 2309SOL    HW2 6940   2.445   1.967   3.748
 2310SOL     OW 6941   2.401   1.926   4.236
 2310SOL    HW1 6942   2.320   1.927   4.294
 2310SOL    HW2 6943   2.404   2.009   4.181
 2311SOL     OW 6944   3.296   3.050   3.765
 2311SOL    HW1 6945   3.328   2.974   3.822
 2311SOL    HW2 6946   3.204   3.077   3.795
 2312SOL     OW 6947   2.159   1.897   3.895
 2312SOL    HW1 6948   2.208   1.981   3.874
 2312SOL    HW2 6949   2.221   1.832   3.940
 2313SOL     OW 6950   2.797   2.098   4.204
 2313SOL    HW1 6951   2.749   2.139   4.126
 2313SOL    HW2 6952   2.896   2.096   4.185
 2314SOL     OW 6953   3.089   3.432   4.517
 2314SOL    HW1 6954   3.110   3.506   4.452
 2314SOL    HW2 6955   3.157   3.432   4.590
 2315SOL     OW 6956   2.321   3.014   4.465
 2315SOL    HW1 6957   2.250   2.987   4.530
 2315SOL    HW2 6958   2.295   2.986   4.372
 2316SOL     OW 6959   3.133   3.659   4.315
 2316SOL    HW1 6960   3.177   3.723   4.251
 2316SOL    HW2 6961   3.083   3.711   4.385
 2317SOL     OW 6962   2.894   2.411   3.740
 2317SOL    HW1 6963   2.853   2.493   3.701
 2317SOL    HW2 6964   2.958   2.437   3.813
 2318SOL     OW 6965   2.728   2.316   4.366
 2318SOL    HW1 6966   2.696   2.388   4.304
 2318SOL    HW2 6967   2.752   2.235   4.313
 2319SOL     OW 6968   2.879   1.901   4.477
 2319SOL    HW1 6969   2.807   1.906   4.408
 2319SOL    HW2 6970   2.855   1.832   4.546
 2320SOL     OW 6971   3.719   2.695   4.101
 2320SOL    HW1 6972   3.761   2.631   4.165
 2320SOL    HW2 6973   3.681   2.644   4.023
 2321SOL     OW 6974   2.350   3.247   3.898
 2321SOL    HW1 6975   2.263   3.232   3.945
 2321SOL    HW2 6976   2.333   3.273   3.803
 2322SOL     OW 6977   3.526   3.142   4.381
 2322SOL    HW1 6978   3.625   3.150   4.395
 2322SOL    HW2 6979   3.481   3.226   4.412
 2323SOL     OW 6980   3.252   2.437   3.802
 2323SOL    HW1 6981   3.198   2.416   3.883
 2323SOL    HW2 6982   3.343   2.396   3.811
 2324SOL     OW 6983   2.389   2.118   4.052
 2324SOL    HW1 6984   2.416   2.059   3.977
 2324SOL    HW2 6985   2.389   2.213   4.021
 2325SOL     OW 6986   2.567   2.912   4.092
 2325SOL    HW1 6987   2.553   2.919   4.191
 2325SOL    HW2 6988   2.651   2.861   4.074
 2326SOL     OW 6989   2.229   2.962   4.225
 2326SOL    HW1 6990   2.222   3.045   4.169
 2326SOL    HW2 6991   2.233   2.882   4.165
 2327SOL     OW 6992   2.428   2.399   4.589
 2327SOL    HW1 6993   2.440   2.465   4.515
 2327SOL    HW2 6994   2.474   2.433   4.672
 2328SOL     OW 6995   3.114   3.210   4.112
 2328SOL    HW1 6996   3.164   3.287   4.152
 2328SOL    HW2 6997   3.019   3.212   4.144
 2329SOL     OW 6998   3.444   2.501   4.196
 2329SOL    HW1 6999   3.413   2.562   4.269
 2329SOL    HW2 7000   3.494   2.553   4.127
 2330SOL     OW 7001   3.071   2.387   3.999
 2330SOL    HW1 7002   3.084   2.303   4.053
 2330SOL    HW2 7003   3.042   2.461   4.059
 2331SOL     OW 7004   2.594   2.496   4.788
 2331SOL    HW1 7005   2.653   2.470   4.712
 2331SOL    HW2 7006   2.566   2.592   4.777
 2332SOL     OW 7007   2.169   1.925   4.342
 2332SOL    HW1 7008   2.158   2.019   4.375
 2332SOL    HW2 7009   2.164   1.862   4.419
 2333SOL     OW 7010   3.484   2.229   4.098
 2333SOL    HW1 7011   3.486   2.153   4.162
 2333SOL    HW2 7012   3.436   2.306   4.138
 2334SOL     OW 7013   3.402   2.136   3.849
 2334SOL    HW1 7014   3.341   2.061   3.872
 2334SOL    HW2 7015   3.424   2.188   3.932
 2335SOL     OW 7016   3.165   2.700   3.766
 2335SOL    HW1 7017   3.199   2.607   3.781
 2335SOL    HW2 7018   3.183   2.727   3.671
 2336SOL     OW 7019   2.930   3.195   4.573
 2336SOL    HW1 7020   2.937   3.111   4.518
 2336SOL    HW2 7021   2.992   3.264   4.537
 2337SOL     OW 7022   1.870   3.188   3.924
 2337SOL    HW1 7023   1.777   3.209   3.893
 2337SOL    HW2 7024   1.880   3.089   3.937
 2338SOL     OW 7025   1.950   3.663   4.651
 2338SOL    HW1 7026   1.908   3.577   4.624
 2338SOL    HW2 7027   2.044   3.666   4.617
 2339SOL     OW 7028   2.366   3.430   4.634
 2339SOL    HW1 7029   2.432   3.504   4.643
 2339SOL    HW2 7030   2.410   3.351   4.592
 2340SOL     OW 7031   2.677   2.434   4.049
 2340SOL    HW1 7032   2.684   2.345   4.003
 2340SOL    HW2 7033   2.583   2.468   4.041
 2341SOL     OW 7034   2.335   2.362   3.915
 2341SOL    HW1 7035   2.396   2.442   3.919
 2341SOL    HW2 7036   2.240   2.393   3.922
 2342SOL     OW 7037   3.164   2.717   4.033
 2342SOL    HW1 7038   3.078   2.686   4.075
 2342SOL    HW2 7039   3.160   2.703   3.934
 2343SOL     OW 7040   3.588   1.997   4.247
 2343SOL    HW1 7041   3.661   1.980   4.180
 2343SOL    HW2 7042   3.557   1.910   4.285
 2344SOL     OW 7043   3.250   3.435   4.201
 2344SOL    HW1 7044   3.317   3.447   4.127
 2344SOL    HW2 7045   3.210   3.524   4.224
 2345SOL     OW 7046   3.142   2.789   4.396
 2345SOL    HW1 7047   3.202   2.708   4.398
 2345SOL    HW2 7048   3.182   2.858   4.336
 2346SOL     OW 7049   2.534   3.478   3.878
 2346SOL    HW1 7050   2.543   3.488   3.779
 2346SOL    HW2 7051   2.494   3.389   3.899
 2347SOL     OW 7052   3.703   2.037   4.687
 2347SOL    HW1 7053   3.742   1.952   4.651
 2347SOL    HW2 7054   3.605   2.039   4.668
 2348SOL     OW 7055   2.125   2.188   4.444
 2348SOL    HW1 7056   2.046   2.239   4.410
 2348SOL    HW2 7057   2.116   2.173   4.542
 2349SOL     OW 7058   3.056   3.474   3.755
 2349SOL    HW1 7059   3.062   3.381   3.792
 2349SOL    HW2 7060   2.997   3.474   3.675
 2350SOL     OW 7061   2.778   2.772   4.015
 2350SOL    HW1 7062   2.841   2.810   3.947
 2350SOL    HW2 7063   2.818   2.689   4.054
 2351SOL     OW 7064   3.366   3.469   3.768
 2351SOL    HW1 7065   3.274   3.506   3.775
 2351SOL    HW2 7066   3.404   3.489   3.678
 2352SOL     OW 7067   2.901   2.960   4.420
 2352SOL    HW1 7068   2.831   2.913   4.474
 2352SOL    HW2 7069   2.960   2.892   4.377
 2353SOL     OW 7070   2.452   3.349   4.215
 2353SOL    HW1 7071   2.494   3.291   4.145
 2353SOL    HW2 7072   2.408   3.428   4.171
 2354SOL     OW 7073   2.117   3.210   4.014
 2354SOL    HW1 7074   2.021   3.211   3.987
 2354SOL    HW2 7075   2.129   3.263   4.098
 2355SOL     OW 7076   1.937   2.207   3.757
 2355SOL    HW1 7077   1.845   2.179   3.728
 2355SOL    HW2 7078   1.968   2.284   3.701
 2356SOL     OW 7079   1.934   2.028   4.042
 2356SOL    HW1 7080   1.917   2.111   3.988
 2356SOL    HW2 7081   2.024   1.991   4.020
 2357SOL     OW 7082   3.045   3.197   3.843
 2357SOL    HW1 7083   2.946   3.186   3.845
 2357SOL    HW2 7084   3.079   3.212   3.936
 2358SOL     OW 7085   3.087   2.187   4.173
 2358SOL    HW1 7086   3.152   2.113   4.162
 2358SOL    HW2 7087   3.107   2.237   4.257
 2359SOL     OW 7088   2.456   2.607   4.376
 2359SOL    HW1 7089   2.506   2.692   4.357
 2359SOL    HW2 7090   2.368   2.609   4.328
 2360SOL     OW 7091   2.721   3.236   3.740
 2360SOL    HW1 7092   2.675   3.251   3.828
 2360SOL    HW2 7093   2.765   3.321   3.710
 2361SOL     OW 7094   2.523   3.652   4.677
 2361SOL    HW1 7095   2.477   3.740   4.664
 2361SOL    HW2 7096   2.622   3.664   4.670
 2362SOL     OW 7097   2.721   2.818   4.585
 2362SOL    HW1 7098   2.775   2.749   4.633
 2362SOL    HW2 7099   2.689   2.887   4.651
 2363SOL     OW 7100   2.945   2.846   3.811
 2363SOL    HW1 7101   2.922   2.899   3.729
 2363SOL    HW2 7102   3.026   2.790   3.792
 2364SOL     OW 7103   3.723   3.431   4.575
 2364SOL    HW1 7104   3.652   3.419   4.505
 2364SOL    HW2 7105   3.724   3.352   4.635
 2365SOL     OW 7106   1.941   3.102   4.377
 2365SOL    HW1 7107   1.940   3.055   4.465
 2365SOL    HW2 7108   2.023   3.074   4.326
 2366SOL     OW 7109   2.290   2.286   4.244
 2366SOL    HW1 7110   2.320   2.214   4.182
 2366SOL    HW2 7111   2.251   2.246   4.327
 2367SOL     OW 7112   2.674   3.448   4.411
 2367SOL    HW1 7113   2.706   3.458   4.317
 2367SOL    HW2 7114   2.595   3.386   4.413
 2368SOL     OW 7115   2.632   3.192   4.025
 2368SOL    HW1 7116   2.586   3.105   4.042
 2368SOL    HW2 7117   2.723   3.189   4.066
 2369SOL     OW 7118   3.214   1.914   3.892
 2369SOL    HW1 7119   3.249   1.873   3.808
 2369SOL    HW2 7120   3.124   1.876   3.912
 2370SOL     OW 7121   3.162   2.315   4.415
 2370SOL    HW1 7122   3.103   2.395   4.419
 2370SOL    HW2 7123   3.177   2.280   4.508
 2371SOL     OW 7124   3.455   2.083   4.606
 2371SOL    HW1 7125   3.371   2.082   4.660
 2371SOL    HW2 7126   3.457   2.166   4.550
 2372SOL     OW 7127   1.901   2.939   4.024
 2372SOL    HW1 7128   2.000   2.928   4.015
 2372SOL    HW2 7129   1.861   2.853   4.056
 2373SOL     OW 7130   2.737   3.508   4.061
 2373SOL    HW1 7131   2.660   3.473   4.007
 2373SOL    HW2 7132   2.705   3.579   4.123
 2374SOL     OW 7133   2.092   4.352   0.113
 2374SOL    HW1 7134   1.999   4.350   0.150
 2374SOL    HW2 7135   2.093   4.313   0.021
 2375SOL     OW 7136   2.087   3.999   0.996
 2375SOL    HW1 7137   2.122   3.982   1.088
 2375SOL    HW2 7138   1.999   3.954   0.984
 2376SOL     OW 7139   1.881   4.092   0.647
 2376SOL    HW1 7140   1.799   4.135   0.686
 2376SOL    HW2 7141   1.853   4.019   0.584
 2377SOL     OW 7142   2.997   4.427   0.717
 2377SOL    HW1 7143   3.054   4.505   0.692
 2377SOL    HW2 7144   2.937   4.453   0.793
 2378SOL     OW 7145   3.617   4.331   0.231
 2378SOL    HW1 7146   3.605   4.318   0.132
 2378SOL    HW2 7147   3.587   4.250   0.280
 2379SOL     OW 7148   2.712   4.522   1.823
 2379SOL    HW1 7149   2.708   4.598   1.888
 2379SOL    HW2 7150   2.734   4.558   1.732
 2380SOL     OW 7151   2.547   4.736   0.665
 2380SOL    HW1 7152   2.616   4.720   0.735
 2380SOL    HW2 7153   2.474   4.793   0.703
 2381SOL     OW 7154   2.300   4.116   1.499
 2381SOL    HW1 7155   2.382   4.060   1.508
 2381SOL    HW2 7156   2.219   4.058   1.503
 2382SOL     OW 7157   3.465   4.171   0.737
 2382SOL    HW1 7158   3.391   4.217   0.687
 2382SOL    HW2 7159   3.516   4.239   0.790
 2383SOL     OW 7160   3.456   3.838   1.480
 2383SOL    HW1 7161   3.438   3.905   1.408
 2383SOL    HW2 7162   3.453   3.884   1.569
 2384SOL     OW 7163   1.984   4.367   0.563
 2384SOL    HW1 7164   1.939   4.279   0.580
 2384SOL    HW2 7165   1.983   4.421   0.647
 2385SOL     OW 7166   1.975   4.461   1.597
 2385SOL    HW1 7167   2.063   4.448   1.642
 2385SOL    HW2 7168   1.962   4.558   1.575
 2386SOL     OW 7169   2.671   3.728   0.502
 2386SOL    HW1 7170   2.711   3.819   0.493
 2386SOL    HW2 7171   2.571   3.736   0.508
 2387SOL     OW 7172   2.179   3.975   1.801
 2387SOL    HW1 7173   2.250   4.046   1.807
 2387SOL    HW2 7174   2.091   4.014   1.829
 2388SOL     OW 7175   2.460   4.453   0.270
 2388SOL    HW1 7176   2.484   4.522   0.202
 2388SOL    HW2 7177   2.382   4.486   0.324
 2389SOL     OW 7178   3.143   4.069   0.944
 2389SOL    HW1 7179   3.057   4.019   0.931
 2389SOL    HW2 7180   3.205   4.015   1.000
 2390SOL     OW 7181   2.669   4.329   1.465
 2390SOL    HW1 7182   2.622   4.326   1.554
 2390SOL    HW2 7183   2.618   4.274   1.399
 2391SOL     OW 7184   3.256   4.193   1.674
 2391SOL    HW1 7185   3.236   4.236   1.762
 2391SOL    HW2 7186   3.334   4.131   1.683
 2392SOL     OW 7187   2.835   4.614   1.572
 2392SOL    HW1 7188   2.881   4.530   1.543
 2392SOL    HW2 7189   2.779   4.648   1.497
 2393SOL     OW 7190   2.853   4.134   1.242
 2393SOL    HW1 7191   2.776   4.168   1.296
 2393SOL    HW2 7192   2.819   4.083   1.163
 2394SOL     OW 7193   2.903   4.425   0.429
 2394SOL    HW1 7194   2.929   4.421   0.525
 2394SOL    HW2 7195   2.818   4.374   0.415
 2395SOL     OW 7196   1.938   4.535   0.789
 2395SOL    HW1 7197   2.037   4.523   0.798
 2395SOL    HW2 7198   1.914   4.630   0.810
 2396SOL     OW 7199   2.727   4.072   0.195
 2396SOL    HW1 7200   2.786   4.135   0.146
 2396SOL    HW2 7201   2.746   3.978   0.166
 2397SOL     OW 7202   3.581   4.309   1.831
 2397SOL    HW1 7203   3.555   4.398   1.795
 2397SOL    HW2 7204   3.579   4.241   1.758
 2398SOL     OW 7205   2.412   3.920   0.885
 2398SOL    HW1 7206   2.407   3.915   0.985
 2398SOL    HW2 7207   2.414   4.016   0.856
 2399SOL     OW 7208   3.320   4.459   0.728
 2399SOL    HW1 7209   3.315   4.394   0.803
 2399SOL    HW2 7210   3.400   4.518   0.741
 2400SOL     OW 7211   2.064   4.009   1.498
 2400SOL    HW1 7212   1.984   4.069   1.485
 2400SOL    HW2 7213   2.054   3.960   1.584
 2401SOL     OW 7214   3.262   3.831   0.426
 2401SOL    HW1 7215   3.238   3.794   0.336
 2401SOL    HW2 7216   3.361   3.847   0.430
 2402SOL     OW 7217   2.244   4.424   0.480
 2402SOL    HW1 7218   2.289   4.334   0.477
 2402SOL    HW2 7219   2.150   4.413   0.513
 2403SOL     OW 7220   3.409   3.946   1.729
 2403SOL    HW1 7221   3.404   3.983   1.821
 2403SOL    HW2 7222   3.337   3.877   1.717
 2404SOL     OW 7223   2.643   3.988   1.749
 2404SOL    HW1 7224   2.710   3.927   1.792
 2404SOL    HW2 7225   2.570   4.007   1.814
 2405SOL     OW 7226   3.213   4.314   1.433
 2405SOL    HW1 7227   3.241   4.271   1.518
 2405SOL    HW2 7228   3.238   4.410   1.434
 2406SOL     OW 7229   2.784   4.227   0.899
 2406SOL    HW1 7230   2.759   4.218   0.803
 2406SOL    HW2 7231   2.832   4.145   0.930
 2407SOL     OW 7232   2.401   3.788   0.512
 2407SOL    HW1 7233   2.320   3.789   0.570
 2407SOL    HW2 7234   2.404   3.871   0.457
 2408SOL     OW 7235   2.159   3.759   0.171
 2408SOL    HW1 7236   2.208   3.843   0.150
 2408SOL    HW2 7237   2.221   3.694   0.216
 2409SOL     OW 7238   2.797   3.960   0.480
 2409SOL    HW1 7239   2.749   4.001   0.402
 2409SOL    HW2 7240   2.896   3.958   0.461
 2410SOL     OW 7241   2.938   4.407   1.464
 2410SOL    HW1 7242   2.858   4.346   1.467
 2410SOL    HW2 7243   3.019   4.354   1.440
 2411SOL     OW 7244   2.894   4.273   0.016
 2411SOL    HW1 7245   2.853   4.355  -0.023
 2411SOL    HW2 7246   2.958   4.299   0.089
 2412SOL     OW 7247   1.940   4.280   1.386
 2412SOL    HW1 7248   2.032   4.279   1.345
 2412SOL    HW2 7249   1.934   4.354   1.453
 2413SOL     OW 7250   2.423   3.946   1.147
 2413SOL    HW1 7251   2.461   3.862   1.184
 2413SOL    HW2 7252   2.335   3.965   1.191
 2414SOL     OW 7253   2.728   4.178   0.642
 2414SOL    HW1 7254   2.696   4.250   0.580
 2414SOL    HW2 7255   2.752   4.097   0.589
 2415SOL     OW 7256   2.879   3.763   0.753
 2415SOL    HW1 7257   2.807   3.768   0.684
 2415SOL    HW2 7258   2.855   3.694   0.822
 2416SOL     OW 7259   3.328   4.314   0.992
 2416SOL    HW1 7260   3.298   4.219   0.999
 2416SOL    HW2 7261   3.401   4.330   1.058
 2417SOL     OW 7262   3.719   4.557   0.377
 2417SOL    HW1 7263   3.761   4.493   0.441
 2417SOL    HW2 7264   3.681   4.506   0.299
 2418SOL     OW 7265   3.252   4.299   0.078
 2418SOL    HW1 7266   3.198   4.278   0.159
 2418SOL    HW2 7267   3.343   4.258   0.087
 2419SOL     OW 7268   2.389   3.980   0.328
 2419SOL    HW1 7269   2.416   3.921   0.253
 2419SOL    HW2 7270   2.389   4.075   0.297
 2420SOL     OW 7271   2.777   3.813   1.402
 2420SOL    HW1 7272   2.802   3.793   1.307
 2420SOL    HW2 7273   2.849   3.869   1.444
 2421SOL     OW 7274   2.272   4.537   1.251
 2421SOL    HW1 7275   2.358   4.549   1.301
 2421SOL    HW2 7276   2.230   4.450   1.278
 2422SOL     OW 7277   3.136   4.110   1.262
 2422SOL    HW1 7278   3.157   4.184   1.326
 2422SOL    HW2 7279   3.047   4.127   1.219
 2423SOL     OW 7280   2.428   4.261   0.865
 2423SOL    HW1 7281   2.440   4.327   0.791
 2423SOL    HW2 7282   2.474   4.295   0.948
 2424SOL     OW 7283   3.444   4.363   0.472
 2424SOL    HW1 7284   3.413   4.424   0.545
 2424SOL    HW2 7285   3.494   4.415   0.403
 2425SOL     OW 7286   2.264   4.475   1.598
 2425SOL    HW1 7287   2.332   4.530   1.551
 2425SOL    HW2 7288   2.304   4.387   1.625
 2426SOL     OW 7289   3.449   4.503   1.670
 2426SOL    HW1 7290   3.357   4.541   1.665
 2426SOL    HW2 7291   3.509   4.550   1.605
 2427SOL     OW 7292   2.875   3.829   1.770
 2427SOL    HW1 7293   2.881   3.914   1.718
 2427SOL    HW2 7294   2.907   3.753   1.713
 2428SOL     OW 7295   2.366   3.774   1.740
 2428SOL    HW1 7296   2.324   3.717   1.670
 2428SOL    HW2 7297   2.300   3.843   1.772
 2429SOL     OW 7298   2.435   4.594   1.029
 2429SOL    HW1 7299   2.479   4.683   1.020
 2429SOL    HW2 7300   2.372   4.594   1.106
 2430SOL     OW 7301   3.222   4.586   1.045
 2430SOL    HW1 7302   3.147   4.586   0.979
 2430SOL    HW2 7303   3.259   4.494   1.054
 2431SOL     OW 7304   3.071   4.249   0.275
 2431SOL    HW1 7305   3.084   4.165   0.329
 2431SOL    HW2 7306   3.042   4.323   0.335
 2432SOL     OW 7307   2.169   3.937   1.231
 2432SOL    HW1 7308   2.146   3.974   1.321
 2432SOL    HW2 7309   2.139   3.842   1.225
 2433SOL     OW 7310   2.594   4.358   1.064
 2433SOL    HW1 7311   2.653   4.332   0.988
 2433SOL    HW2 7312   2.566   4.454   1.053
 2434SOL     OW 7313   3.590   4.659   1.854
 2434SOL    HW1 7314   3.544   4.652   1.765
 2434SOL    HW2 7315   3.528   4.703   1.920
 2435SOL     OW 7316   2.169   3.787   0.618
 2435SOL    HW1 7317   2.158   3.881   0.651
 2435SOL    HW2 7318   2.164   3.724   0.695
 2436SOL     OW 7319   3.484   4.091   0.374
 2436SOL    HW1 7320   3.486   4.015   0.438
 2436SOL    HW2 7321   3.436   4.168   0.414
 2437SOL     OW 7322   2.885   4.490   0.966
 2437SOL    HW1 7323   2.900   4.511   1.062
 2437SOL    HW2 7324   2.855   4.395   0.957
 2438SOL     OW 7325   3.402   3.998   0.125
 2438SOL    HW1 7326   3.341   3.923   0.148
 2438SOL    HW2 7327   3.424   4.050   0.208
 2439SOL     OW 7328   3.165   4.562   0.042
 2439SOL    HW1 7329   3.199   4.469   0.057
 2439SOL    HW2 7330   3.183   4.589  -0.053
 2440SOL     OW 7331   2.181   4.534   0.949
 2440SOL    HW1 7332   2.274   4.570   0.954
 2440SOL    HW2 7333   2.175   4.449   1.001
 2441SOL     OW 7334   2.201   4.233   1.006
 2441SOL    HW1 7335   2.149   4.150   0.989
 2441SOL    HW2 7336   2.278   4.238   0.942
 2442SOL     OW 7337   3.000   4.104   1.678
 2442SOL    HW1 7338   2.955   4.167   1.742
 2442SOL    HW2 7339   3.093   4.135   1.661
 2443SOL     OW 7340   3.022   3.931   1.477
 2443SOL    HW1 7341   3.022   3.995   1.554
 2443SOL    HW2 7342   3.050   3.979   1.394
 2444SOL     OW 7343   2.864   4.520   1.238
 2444SOL    HW1 7344   2.905   4.488   1.324
 2444SOL    HW2 7345   2.768   4.493   1.235
 2445SOL     OW 7346   1.902   4.268   1.114
 2445SOL    HW1 7347   1.987   4.235   1.073
 2445SOL    HW2 7348   1.915   4.283   1.212
 2446SOL     OW 7349   2.051   4.244   1.722
 2446SOL    HW1 7350   2.110   4.204   1.652
 2446SOL    HW2 7351   1.993   4.315   1.681
 2447SOL     OW 7352   2.677   4.296   0.325
 2447SOL    HW1 7353   2.684   4.207   0.279
 2447SOL    HW2 7354   2.583   4.330   0.317
 2448SOL     OW 7355   3.519   4.328   1.206
 2448SOL    HW1 7356   3.481   4.259   1.268
 2448SOL    HW2 7357   3.601   4.292   1.162
 2449SOL     OW 7358   2.533   4.188   1.269
 2449SOL    HW1 7359   2.499   4.099   1.239
 2449SOL    HW2 7360   2.559   4.242   1.189
 2450SOL     OW 7361   2.335   4.224   0.191
 2450SOL    HW1 7362   2.396   4.304   0.195
 2450SOL    HW2 7363   2.240   4.255   0.198
 2451SOL     OW 7364   3.164   4.579   0.309
 2451SOL    HW1 7365   3.078   4.548   0.351
 2451SOL    HW2 7366   3.160   4.565   0.210
 2452SOL     OW 7367   2.765   3.810   0.133
 2452SOL    HW1 7368   2.816   3.811   0.047
 2452SOL    HW2 7369   2.821   3.768   0.204
 2453SOL     OW 7370   3.588   3.859   0.523
 2453SOL    HW1 7371   3.661   3.842   0.456
 2453SOL    HW2 7372   3.557   3.772   0.561
 2454SOL     OW 7373   3.142   4.651   0.672
 2454SOL    HW1 7374   3.202   4.570   0.674
 2454SOL    HW2 7375   3.182   4.720   0.612
 2455SOL     OW 7376   3.703   3.899   0.963
 2455SOL    HW1 7377   3.742   3.814   0.927
 2455SOL    HW2 7378   3.605   3.901   0.944
 2456SOL     OW 7379   2.125   4.050   0.720
 2456SOL    HW1 7380   2.046   4.101   0.686
 2456SOL    HW2 7381   2.116   4.035   0.818
 2457SOL     OW 7382   2.876   3.960   0.971
 2457SOL    HW1 7383   2.868   3.924   0.878
 2457SOL    HW2 7384   2.874   3.884   1.036
 2458SOL     OW 7385   3.571   4.109   1.381
 2458SOL    HW1 7386   3.644   4.178   1.385
 2458SOL    HW2 7387   3.599   4.034   1.322
 2459SOL     OW 7388   1.967   4.737   1.726
 2459SOL    HW1 7389   1.890   4.704   1.780
 2459SOL    HW2 7390   2.052   4.707   1.768
 2460SOL     OW 7391   2.534   3.927   1.489
 2460SOL    HW1 7392   2.624   3.911   1.449
 2460SOL    HW2 7393   2.542   3.932   1.588
 2461SOL     OW 7394   3.302   4.580   1.398
 2461SOL    HW1 7395   3.245   4.632   1.335
 2461SOL    HW2 7396   3.398   4.592   1.374
 2462SOL     OW 7397   1.934   3.890   0.318
 2462SOL    HW1 7398   1.917   3.973   0.264
 2462SOL    HW2 7399   2.024   3.853   0.296
 2463SOL     OW 7400   2.475   4.566   1.431
 2463SOL    HW1 7401   2.531   4.647   1.414
 2463SOL    HW2 7402   2.534   4.486   1.434
 2464SOL     OW 7403   2.578   4.289   1.708
 2464SOL    HW1 7404   2.597   4.354   1.782
 2464SOL    HW2 7405   2.638   4.209   1.717
 2465SOL     OW 7406   3.536   4.607   1.254
 2465SOL    HW1 7407   3.509   4.518   1.217
 2465SOL    HW2 7408   3.537   4.675   1.181
 2466SOL     OW 7409   3.087   4.049   0.449
 2466SOL    HW1 7410   3.152   3.975   0.438
 2466SOL    HW2 7411   3.107   4.099   0.533
 2467SOL     OW 7412   2.456   4.469   0.652
 2467SOL    HW1 7413   2.506   4.554   0.633
 2467SOL    HW2 7414   2.368   4.471   0.604
 2468SOL     OW 7415   3.639   4.066   1.642
 2468SOL    HW1 7416   3.622   4.097   1.548
 2468SOL    HW2 7417   3.555   4.029   1.680
 2469SOL     OW 7418   3.592   4.658   1.517
 2469SOL    HW1 7419   3.630   4.749   1.532
 2469SOL    HW2 7420   3.584   4.641   1.418
 2470SOL     OW 7421   3.686   3.916   1.227
 2470SOL    HW1 7422   3.682   3.826   1.271
 2470SOL    HW2 7423   3.689   3.905   1.128
 2471SOL     OW 7424   2.290   4.148   0.520
 2471SOL    HW1 7425   2.320   4.076   0.458
 2471SOL    HW2 7426   2.251   4.108   0.603
 2472SOL     OW 7427   2.179   4.271   1.280
 2472SOL    HW1 7428   2.217   4.212   1.352
 2472SOL    HW2 7429   2.219   4.245   1.192
 2473SOL     OW 7430   3.286   3.938   1.112
 2473SOL    HW1 7431   3.338   3.873   1.167
 2473SOL    HW2 7432   3.237   4.001   1.173
 2474SOL     OW 7433   2.863   3.758   1.154
 2474SOL    HW1 7434   2.800   3.686   1.123
 2474SOL    HW2 7435   2.956   3.722   1.154
 2475SOL     OW 7436   3.214   3.776   0.168
 2475SOL    HW1 7437   3.249   3.735   0.084
 2475SOL    HW2 7438   3.124   3.738   0.188
 2476SOL     OW 7439   3.162   4.177   0.691
 2476SOL    HW1 7440   3.103   4.257   0.695
 2476SOL    HW2 7441   3.177   4.142   0.784
 2477SOL     OW 7442   3.455   3.945   0.882
 2477SOL    HW1 7443   3.371   3.944   0.936
 2477SOL    HW2 7444   3.457   4.028   0.826
 2478SOL     OW 7445   2.092   4.352   1.975
 2478SOL    HW1 7446   1.999   4.350   2.012
 2478SOL    HW2 7447   2.093   4.313   1.883
 2479SOL     OW 7448   2.087   3.999   2.858
 2479SOL    HW1 7449   2.122   3.982   2.950
 2479SOL    HW2 7450   1.999   3.954   2.846
 2480SOL     OW 7451   1.881   4.092   2.509
 2480SOL    HW1 7452   1.799   4.135   2.548
 2480SOL    HW2 7453   1.853   4.019   2.446
 2481SOL     OW 7454   2.997   4.427   2.579
 2481SOL    HW1 7455   3.054   4.505   2.554
 2481SOL    HW2 7456   2.937   4.453   2.655
 2482SOL     OW 7457   3.617   4.331   2.093
 2482SOL    HW1 7458   3.605   4.318   1.994
 2482SOL    HW2 7459   3.587   4.250   2.142
 2483SOL     OW 7460   2.712   4.522   3.685
 2483SOL    HW1 7461   2.708   4.598   3.750
 2483SOL    HW2 7462   2.734   4.558   3.594
 2484SOL     OW 7463   2.547   4.736   2.527
 2484SOL    HW1 7464   2.616   4.720   2.597
 2484SOL    HW2 7465   2.474   4.793   2.565
 2485SOL     OW 7466   2.300   4.116   3.361
 2485SOL    HW1 7467   2.382   4.060   3.370
 2485SOL    HW2 7468   2.219   4.058   3.365
 2486SOL     OW 7469   3.465   4.171   2.599
 2486SOL    HW1 7470   3.391   4.217   2.549
 2486SOL    HW2 7471   3.516   4.239   2.652
 2487SOL     OW 7472   3.456   3.838   3.342
 2487SOL    HW1 7473   3.438   3.905   3.270
 2487SOL    HW2 7474   3.453   3.884   3.431
 2488SOL     OW 7475   1.984   4.367   2.425
 2488SOL    HW1 7476   1.939   4.279   2.442
 2488SOL    HW2 7477   1.983   4.421   2.509
 2489SOL     OW 7478   1.975   4.461   3.459
 2489SOL    HW1 7479   2.063   4.448   3.504
 2489SOL    HW2 7480   1.962   4.558   3.437
 2490SOL     OW 7481   2.671   3.728   2.364
 2490SOL    HW1 7482   2.711   3.819   2.355
 2490SOL    HW2 7483   2.571   3.736   2.370
 2491SOL     OW 7484   2.179   3.975   3.663
 2491SOL    HW1 7485   2.250   4.046   3.669
 2491SOL    HW2 7486   2.091   4.014   3.691
 2492SOL     OW 7487   2.460   4.453   2.132
 2492SOL    HW1 7488   2.484   4.522   2.064
 2492SOL    HW2 7489   2.382   4.486   2.186
 2493SOL     OW 7490   3.143   4.069   2.806
 2493SOL    HW1 7491   3.057   4.019   2.793
 2493SOL    HW2 7492   3.205   4.015   2.862
 2494SOL     OW 7493   2.669   4.329   3.327
 2494SOL    HW1 7494   2.622   4.326   3.416
 2494SOL    HW2 7495   2.618   4.274   3.261
 2495SOL     OW 7496   3.256   4.193   3.536
 2495SOL    HW1 7497   3.236   4.236   3.624
 2495SOL    HW2 7498   3.334   4.131   3.545
 2496SOL     OW 7499   2.835   4.614   3.434
 2496SOL    HW1 7500   2.881   4.530   3.405
 2496SOL    HW2 7501   2.779   4.648   3.359
 2497SOL     OW 7502   2.853   4.134   3.104
 2497SOL    HW1 7503   2.776   4.168   3.158
 2497SOL    HW2 7504   2.819   4.083   3.025
 2498SOL     OW 7505   2.903   4.425   2.291
 2498SOL    HW1 7506   2.929   4.421   2.387
 2498SOL    HW2 7507   2.818   4.374   2.277
 2499SOL     OW 7508   1.938   4.535   2.651
 2499SOL    HW1 7509   2.037   4.523   2.660
 2499SOL    HW2 7510   1.914   4.630   2.672
 2500SOL     OW 7511   2.727   4.072   2.057
 2500SOL    HW1 7512   2.786   4.135   2.008
 2500SOL    HW2 7513   2.746   3.978   2.028
 2501SOL     OW 7514   3.581   4.309   3.693
 2501SOL    HW1 7515   3.555   4.398   3.657
 2501SOL    HW2 7516   3.579   4.241   3.620
 2502SOL     OW 7517   2.412   3.920   2.747
 2502SOL    HW1 7518   2.407   3.915   2.847
 2502SOL    HW2 7519   2.414   4.016   2.718
 2503SOL     OW 7520   3.320   4.459   2.590
 2503SOL    HW1 7521   3.315   4.394   2.665
 2503SOL    HW2 7522   3.400   4.518   2.603
 2504SOL     OW 7523   2.064   4.009   3.360
 2504SOL    HW1 7524   1.984   4.069   3.347
 2504SOL    HW2 7525   2.054   3.960   3.446
 2505SOL     OW 7526   3.262   3.831   2.288
 2505SOL    HW1 7527   3.238   3.794   2.198
 2505SOL    HW2 7528   3.361   3.847   2.292
 2506SOL     OW 7529   2.244   4.424   2.342
 2506SOL    HW1 7530   2.289   4.334   2.339
 2506SOL    HW2 7531   2.150   4.413   2.375
 2507SOL     OW 7532   3.409   3.946   3.591
 2507SOL    HW1 7533   3.404   3.983   3.683
 2507SOL    HW2 7534   3.337   3.877   3.579
 2508SOL     OW 7535   2.476   3.846   1.979
 2508SOL    HW1 7536   2.574   3.824   1.986
 2508SOL    HW2 7537   2.445   3.829   1.886
 2509SOL     OW 7538   2.643   3.988   3.611
 2509SOL    HW1 7539   2.710   3.927   3.654
 2509SOL    HW2 7540   2.570   4.007   3.676
 2510SOL     OW 7541   3.213   4.314   3.295
 2510SOL    HW1 7542   3.241   4.271   3.380
 2510SOL    HW2 7543   3.238   4.410   3.296
 2511SOL     OW 7544   2.784   4.227   2.761
 2511SOL    HW1 7545   2.759   4.218   2.665
 2511SOL    HW2 7546   2.832   4.145   2.792
 2512SOL     OW 7547   2.401   3.788   2.374
 2512SOL    HW1 7548   2.320   3.789   2.432
 2512SOL    HW2 7549   2.404   3.871   2.319
 2513SOL     OW 7550   2.159   3.759   2.033
 2513SOL    HW1 7551   2.208   3.843   2.012
 2513SOL    HW2 7552   2.221   3.694   2.078
 2514SOL     OW 7553   2.797   3.960   2.342
 2514SOL    HW1 7554   2.749   4.001   2.264
 2514SOL    HW2 7555   2.896   3.958   2.323
 2515SOL     OW 7556   2.938   4.407   3.326
 2515SOL    HW1 7557   2.858   4.346   3.329
 2515SOL    HW2 7558   3.019   4.354   3.302
 2516SOL     OW 7559   2.894   4.273   1.878
 2516SOL    HW1 7560   2.853   4.355   1.839
 2516SOL    HW2 7561   2.958   4.299   1.951
 2517SOL     OW 7562   1.940   4.280   3.248
 2517SOL    HW1 7563   2.032   4.279   3.207
 2517SOL    HW2 7564   1.934   4.354   3.315
 2518SOL     OW 7565   2.423   3.946   3.009
 2518SOL    HW1 7566   2.461   3.862   3.046
 2518SOL    HW2 7567   2.335   3.965   3.053
 2519SOL     OW 7568   2.728   4.178   2.504
 2519SOL    HW1 7569   2.696   4.250   2.442
 2519SOL    HW2 7570   2.752   4.097   2.451
 2520SOL     OW 7571   2.879   3.763   2.615
 2520SOL    HW1 7572   2.807   3.768   2.546
 2520SOL    HW2 7573   2.855   3.694   2.684
 2521SOL     OW 7574   3.328   4.314   2.854
 2521SOL    HW1 7575   3.298   4.219   2.861
 2521SOL    HW2 7576   3.401   4.330   2.920
 2522SOL     OW 7577   3.719   4.557   2.239
 2522SOL    HW1 7578   3.761   4.493   2.303
 2522SOL    HW2 7579   3.681   4.506   2.161
 2523SOL     OW 7580   3.252   4.299   1.940
 2523SOL    HW1 7581   3.198   4.278   2.021
 2523SOL    HW2 7582   3.343   4.258   1.949
 2524SOL     OW 7583   2.389   3.980   2.190
 2524SOL    HW1 7584   2.416   3.921   2.115
 2524SOL    HW2 7585   2.389   4.075   2.159
 2525SOL     OW 7586   2.777   3.813   3.264
 2525SOL    HW1 7587   2.802   3.793   3.169
 2525SOL    HW2 7588   2.849   3.869   3.306
 2526SOL     OW 7589   2.272   4.537   3.113
 2526SOL    HW1 7590   2.358   4.549   3.163
 2526SOL    HW2 7591   2.230   4.450   3.140
 2527SOL     OW 7592   3.136   4.110   3.124
 2527SOL    HW1 7593   3.157   4.184   3.188
 2527SOL    HW2 7594   3.047   4.127   3.081
 2528SOL     OW 7595   2.428   4.261   2.727
 2528SOL    HW1 7596   2.440   4.327   2.653
 2528SOL    HW2 7597   2.474   4.295   2.810
 2529SOL     OW 7598   3.444   4.363   2.334
 2529SOL    HW1 7599   3.413   4.424   2.407
 2529SOL    HW2 7600   3.494   4.415   2.265
 2530SOL     OW 7601   2.264   4.475   3.460
 2530SOL    HW1 7602   2.332   4.530   3.413
 2530SOL    HW2 7603   2.304   4.387   3.487
 2531SOL     OW 7604   3.449   4.503   3.532
 2531SOL    HW1 7605   3.357   4.541   3.527
 2531SOL    HW2 7606   3.509   4.550   3.467
 2532SOL     OW 7607   2.875   3.829   3.632
 2532SOL    HW1 7608   2.881   3.914   3.580
 2532SOL    HW2 7609   2.907   3.753   3.575
 2533SOL     OW 7610   2.366   3.774   3.602
 2533SOL    HW1 7611   2.324   3.717   3.532
 2533SOL    HW2 7612   2.300   3.843   3.634
 2534SOL     OW 7613   2.435   4.594   2.891
 2534SOL    HW1 7614   2.479   4.683   2.882
 2534SOL    HW2 7615   2.372   4.594   2.968
 2535SOL     OW 7616   3.222   4.586   2.907
 2535SOL    HW1 7617   3.147   4.586   2.841
 2535SOL    HW2 7618   3.259   4.494   2.916
 2536SOL     OW 7619   3.071   4.249   2.137
 2536SOL    HW1 7620   3.084   4.165   2.191
 2536SOL    HW2 7621   3.042   4.323   2.197
 2537SOL     OW 7622   2.169   3.937   3.093
 2537SOL    HW1 7623   2.146   3.974   3.183
 2537SOL    HW2 7624   2.139   3.842   3.087
 2538SOL     OW 7625   2.594   4.358   2.926
 2538SOL    HW1 7626   2.653   4.332   2.850
 2538SOL    HW2 7627   2.566   4.454   2.915
 2539SOL     OW 7628   3.590   4.659   3.716
 2539SOL    HW1 7629   3.544   4.652   3.627
 2539SOL    HW2 7630   3.528   4.703   3.782
 2540SOL     OW 7631   2.169   3.787   2.480
 2540SOL    HW1 7632   2.158   3.881   2.513
 2540SOL    HW2 7633   2.164   3.724   2.557
 2541SOL     OW 7634   3.484   4.091   2.236
 2541SOL    HW1 7635   3.486   4.015   2.300
 2541SOL    HW2 7636   3.436   4.168   2.276
 2542SOL     OW 7637   2.885   4.490   2.828
 2542SOL    HW1 7638   2.900   4.511   2.924
 2542SOL    HW2 7639   2.855   4.395   2.819
 2543SOL     OW 7640   3.402   3.998   1.987
 2543SOL    HW1 7641   3.341   3.923   2.010
 2543SOL    HW2 7642   3.424   4.050   2.070
 2544SOL     OW 7643   3.165   4.562   1.904
 2544SOL    HW1 7644   3.199   4.469   1.919
 2544SOL    HW2 7645   3.183   4.589   1.809
 2545SOL     OW 7646   2.181   4.534   2.811
 2545SOL    HW1 7647   2.274   4.570   2.816
 2545SOL    HW2 7648   2.175   4.449   2.863
 2546SOL     OW 7649   2.201   4.233   2.868
 2546SOL    HW1 7650   2.149   4.150   2.851
 2546SOL    HW2 7651   2.278   4.238   2.804
 2547SOL     OW 7652   3.000   4.104   3.540
 2547SOL    HW1 7653   2.955   4.167   3.604
 2547SOL    HW2 7654   3.093   4.135   3.523
 2548SOL     OW 7655   3.022   3.931   3.339
 2548SOL    HW1 7656   3.022   3.995   3.416
 2548SOL    HW2 7657   3.050   3.979   3.256
 2549SOL     OW 7658   2.864   4.520   3.100
 2549SOL    HW1 7659   2.905   4.488   3.186
 2549SOL    HW2 7660   2.768   4.493   3.097
 2550SOL     OW 7661   1.902   4.268   2.976
 2550SOL    HW1 7662   1.987   4.235   2.935
 2550SOL    HW2 7663   1.915   4.283   3.074
 2551SOL     OW 7664   2.051   4.244   3.584
 2551SOL    HW1 7665   2.110   4.204   3.514
 2551SOL    HW2 7666   1.993   4.315   3.543
 2552SOL     OW 7667   2.677   4.296   2.187
 2552SOL    HW1 7668   2.684   4.207   2.141
 2552SOL    HW2 7669   2.583   4.330   2.179
 2553SOL     OW 7670   3.519   4.328   3.068
 2553SOL    HW1 7671   3.481   4.259   3.130
 2553SOL    HW2 7672   3.601   4.292   3.024
 2554SOL     OW 7673   2.533   4.188   3.131
 2554SOL    HW1 7674   2.499   4.099   3.101
 2554SOL    HW2 7675   2.559   4.242   3.051
 2555SOL     OW 7676   2.335   4.224   2.053
 2555SOL    HW1 7677   2.396   4.304   2.057
 2555SOL    HW2 7678   2.240   4.255   2.060
 2556SOL     OW 7679   3.164   4.579   2.171
 2556SOL    HW1 7680   3.078   4.548   2.213
 2556SOL    HW2 7681   3.160   4.565   2.072
 2557SOL     OW 7682   3.588   3.859   2.385
 2557SOL    HW1 7683   3.661   3.842   2.318
 2557SOL    HW2 7684   3.557   3.772   2.423
 2558SOL     OW 7685   3.142   4.651   2.534
 2558SOL    HW1 7686   3.202   4.570   2.536
 2558SOL    HW2 7687   3.182   4.720   2.474
 2559SOL     OW 7688   3.703   3.899   2.825
 2559SOL    HW1 7689   3.742   3.814   2.789
 2559SOL    HW2 7690   3.605   3.901   2.806
 2560SOL     OW 7691   2.125   4.050   2.582
 2560SOL    HW1 7692   2.046   4.101   2.548
 2560SOL    HW2 7693   2.116   4.035   2.680
 2561SOL     OW 7694   2.778   4.634   2.153
 2561SOL    HW1 7695   2.841   4.672   2.085
 2561SOL    HW2 7696   2.818   4.551   2.192
 2562SOL     OW 7697   2.876   3.960   2.833
 2562SOL    HW1 7698   2.868   3.924   2.740
 2562SOL    HW2 7699   2.874   3.884   2.898
 2563SOL     OW 7700   3.571   4.109   3.243
 2563SOL    HW1 7701   3.644   4.178   3.247
 2563SOL    HW2 7702   3.599   4.034   3.184
 2564SOL     OW 7703   1.967   4.737   3.588
 2564SOL    HW1 7704   1.890   4.704   3.642
 2564SOL    HW2 7705   2.052   4.707   3.630
 2565SOL     OW 7706   2.534   3.927   3.351
 2565SOL    HW1 7707   2.624   3.911   3.311
 2565SOL    HW2 7708   2.542   3.932   3.450
 2566SOL     OW 7709   1.937   4.069   1.895
 2566SOL    HW1 7710   1.845   4.041   1.866
 2566SOL    HW2 7711   1.968   4.146   1.839
 2567SOL     OW 7712   3.302   4.580   3.260
 2567SOL    HW1 7713   3.245   4.632   3.197
 2567SOL    HW2 7714   3.398   4.592   3.236
 2568SOL     OW 7715   1.934   3.890   2.180
 2568SOL    HW1 7716   1.917   3.973   2.126
 2568SOL    HW2 7717   2.024   3.853   2.158
 2569SOL     OW 7718   2.475   4.566   3.293
 2569SOL    HW1 7719   2.531   4.647   3.276
 2569SOL    HW2 7720   2.534   4.486   3.296
 2570SOL     OW 7721   2.578   4.289   3.570
 2570SOL    HW1 7722   2.597   4.354   3.644
 2570SOL    HW2 7723   2.638   4.209   3.579
 2571SOL     OW 7724   3.536   4.607   3.116
 2571SOL    HW1 7725   3.509   4.518   3.079
 2571SOL    HW2 7726   3.537   4.675   3.043
 2572SOL     OW 7727   3.087   4.049   2.311
 2572SOL    HW1 7728   3.152   3.975   2.300
 2572SOL    HW2 7729   3.107   4.099   2.395
 2573SOL     OW 7730   2.456   4.469   2.514
 2573SOL    HW1 7731   2.506   4.554   2.495
 2573SOL    HW2 7732   2.368   4.471   2.466
 2574SOL     OW 7733   3.639   4.066   3.504
 2574SOL    HW1 7734   3.622   4.097   3.410
 2574SOL    HW2 7735   3.555   4.029   3.542
 2575SOL     OW 7736   3.592   4.658   3.379
 2575SOL    HW1 7737   3.630   4.749   3.394
 2575SOL    HW2 7738   3.584   4.641   3.280
 2576SOL     OW 7739   3.686   3.916   3.089
 2576SOL    HW1 7740   3.682   3.826   3.133
 2576SOL    HW2 7741   3.689   3.905   2.990
 2577SOL     OW 7742   2.290   4.148   2.382
 2577SOL    HW1 7743   2.320   4.076   2.320
 2577SOL    HW2 7744   2.251   4.108   2.465
 2578SOL     OW 7745   2.179   4.271   3.142
 2578SOL    HW1 7746   2.217   4.212   3.214
 2578SOL    HW2 7747   2.219   4.245   3.054
 2579SOL     OW 7748   3.286   3.938   2.974
 2579SOL    HW1 7749   3.338   3.873   3.029
 2579SOL    HW2 7750   3.237   4.001   3.035
 2580SOL     OW 7751   2.863   3.758   3.016
 2580SOL    HW1 7752   2.800   3.686   2.985
 2580SOL    HW2 7753   2.956   3.722   3.016
 2581SOL     OW 7754   3.214   3.776   2.030
 2581SOL    HW1 7755   3.249   3.735   1.946
 2581SOL    HW2 7756   3.124   3.738   2.050
 2582SOL     OW 7757   3.162   4.177   2.553
 2582SOL    HW1 7758   3.103   4.257   2.557
 2582SOL    HW2 7759   3.177   4.142   2.646
 2583SOL     OW 7760   3.455   3.945   2.744
 2583SOL    HW1 7761   3.371   3.944   2.798
 2583SOL    HW2 7762   3.457   4.028   2.688
 2584SOL     OW 7763   2.092   4.352   3.837
 2584SOL    HW1 7764   1.999   4.350   3.874
 2584SOL    HW2 7765   2.093   4.313   3.745
 2585SOL     OW 7766   2.087   3.999   4.720
 2585SOL    HW1 7767   2.122   3.982   4.812
 2585SOL    HW2 7768   1.999   3.954   4.708
 2586SOL     OW 7769   1.881   4.092   4.371
 2586SOL    HW1 7770   1.799   4.135   4.410
 2586SOL    HW2 7771   1.853   4.019   4.308
 2587SOL     OW 7772   2.997   4.427   4.441
 2587SOL    HW1 7773   3.054   4.505   4.416
 2587SOL    HW2 7774   2.937   4.453   4.517
 2588SOL     OW 7775   3.617   4.331   3.955
 2588SOL    HW1 7776   3.605   4.318   3.856
 2588SOL    HW2 7777   3.587   4.250   4.004
 2589SOL     OW 7778   2.547   4.736   4.389
 2589SOL    HW1 7779   2.616   4.720   4.459
 2589SOL    HW2 7780   2.474   4.793   4.427
 2590SOL     OW 7781   3.465   4.171   4.461
 2590SOL    HW1 7782   3.391   4.217   4.411
 2590SOL    HW2 7783   3.516   4.239   4.514
 2591SOL     OW 7784   1.984   4.367   4.287
 2591SOL    HW1 7785   1.939   4.279   4.304
 2591SOL    HW2 7786   1.983   4.421   4.371
 2592SOL     OW 7787   2.671   3.728   4.226
 2592SOL    HW1 7788   2.711   3.819   4.217
 2592SOL    HW2 7789   2.571   3.736   4.232
 2593SOL     OW 7790   2.460   4.453   3.994
 2593SOL    HW1 7791   2.484   4.522   3.926
 2593SOL    HW2 7792   2.382   4.486   4.048
 2594SOL     OW 7793   3.143   4.069   4.668
 2594SOL    HW1 7794   3.057   4.019   4.655
 2594SOL    HW2 7795   3.205   4.015   4.724
 2595SOL     OW 7796   2.903   4.425   4.153
 2595SOL    HW1 7797   2.929   4.421   4.249
 2595SOL    HW2 7798   2.818   4.374   4.139
 2596SOL     OW 7799   1.938   4.535   4.513
 2596SOL    HW1 7800   2.037   4.523   4.522
 2596SOL    HW2 7801   1.914   4.630   4.534
 2597SOL     OW 7802   2.727   4.072   3.919
 2597SOL    HW1 7803   2.786   4.135   3.870
 2597SOL    HW2 7804   2.746   3.978   3.890
 2598SOL     OW 7805   2.412   3.920   4.609
 2598SOL    HW1 7806   2.407   3.915   4.709
 2598SOL    HW2 7807   2.414   4.016   4.580
 2599SOL     OW 7808   3.320   4.459   4.452
 2599SOL    HW1 7809   3.315   4.394   4.527
 2599SOL    HW2 7810   3.400   4.518   4.465
 2600SOL     OW 7811   3.262   3.831   4.150
 2600SOL    HW1 7812   3.238   3.794   4.060
 2600SOL    HW2 7813   3.361   3.847   4.154
 2601SOL     OW 7814   2.244   4.424   4.204
 2601SOL    HW1 7815   2.289   4.334   4.201
 2601SOL    HW2 7816   2.150   4.413   4.237
 2602SOL     OW 7817   2.476   3.846   3.841
 2602SOL    HW1 7818   2.574   3.824   3.848
 2602SOL    HW2 7819   2.445   3.829   3.748
 2603SOL     OW 7820   2.401   3.788   4.236
 2603SOL    HW1 7821   2.320   3.789   4.294
 2603SOL    HW2 7822   2.404   3.871   4.181
 2604SOL     OW 7823   2.159   3.759   3.895
 2604SOL    HW1 7824   2.208   3.843   3.874
 2604SOL    HW2 7825   2.221   3.694   3.940
 2605SOL     OW 7826   2.797   3.960   4.204
 2605SOL    HW1 7827   2.749   4.001   4.126
 2605SOL    HW2 7828   2.896   3.958   4.185
 2606SOL     OW 7829   2.894   4.273   3.740
 2606SOL    HW1 7830   2.853   4.355   3.701
 2606SOL    HW2 7831   2.958   4.299   3.813
 2607SOL     OW 7832   2.728   4.178   4.366
 2607SOL    HW1 7833   2.696   4.250   4.304
 2607SOL    HW2 7834   2.752   4.097   4.313
 2608SOL     OW 7835   2.879   3.763   4.477
 2608SOL    HW1 7836   2.807   3.768   4.408
 2608SOL    HW2 7837   2.855   3.694   4.546
 2609SOL     OW 7838   3.719   4.557   4.101
 2609SOL    HW1 7839   3.761   4.493   4.165
 2609SOL    HW2 7840   3.681   4.506   4.023
 2610SOL     OW 7841   3.252   4.299   3.802
 2610SOL    HW1 7842   3.198   4.278   3.883
 2610SOL    HW2 7843   3.343   4.258   3.811
 2611SOL     OW 7844   2.389   3.980   4.052
 2611SOL    HW1 7845   2.416   3.921   3.977
 2611SOL    HW2 7846   2.389   4.075   4.021
 2612SOL     OW 7847   2.973   4.919   4.824
 2612SOL    HW1 7848   2.933   4.963   4.905
 2612SOL    HW2 7849   2.932   4.956   4.741
 2613SOL     OW 7850   2.428   4.261   4.589
 2613SOL    HW1 7851   2.440   4.327   4.515
 2613SOL    HW2 7852   2.474   4.295   4.672
 2614SOL     OW 7853   3.444   4.363   4.196
 2614SOL    HW1 7854   3.413   4.424   4.269
 2614SOL    HW2 7855   3.494   4.415   4.127
 2615SOL     OW 7856   3.071   4.249   3.999
 2615SOL    HW1 7857   3.084   4.165   4.053
 2615SOL    HW2 7858   3.042   4.323   4.059
 2616SOL     OW 7859   2.594   4.358   4.788
 2616SOL    HW1 7860   2.653   4.332   4.712
 2616SOL    HW2 7861   2.566   4.454   4.777
 2617SOL     OW 7862   2.169   3.787   4.342
 2617SOL    HW1 7863   2.158   3.881   4.375
 2617SOL    HW2 7864   2.164   3.724   4.419
 2618SOL     OW 7865   3.484   4.091   4.098
 2618SOL    HW1 7866   3.486   4.015   4.162
 2618SOL    HW2 7867   3.436   4.168   4.138
 2619SOL     OW 7868   3.402   3.998   3.849
 2619SOL    HW1 7869   3.341   3.923   3.872
 2619SOL    HW2 7870   3.424   4.050   3.932
 2620SOL     OW 7871   3.165   4.562   3.766
 2620SOL    HW1 7872   3.199   4.469   3.781
 2620SOL    HW2 7873   3.183   4.589   3.671
 2621SOL     OW 7874   2.677   4.296   4.049
 2621SOL    HW1 7875   2.684   4.207   4.003
 2621SOL    HW2 7876   2.583   4.330   4.041
 2622SOL     OW 7877   2.335   4.224   3.915
 2622SOL    HW1 7878   2.396   4.304   3.919
 2622SOL    HW2 7879   2.240   4.255   3.922
 2623SOL     OW 7880   3.164   4.579   4.033
 2623SOL    HW1 7881   3.078   4.548   4.075
 2623SOL    HW2 7882   3.160   4.565   3.934
 2624SOL     OW 7883   3.588   3.859   4.247
 2624SOL    HW1 7884   3.661   3.842   4.180
 2624SOL    HW2 7885   3.557   3.772   4.285
 2625SOL     OW 7886   3.142   4.651   4.396
 2625SOL    HW1 7887   3.202   4.570   4.398
 2625SOL    HW2 7888   3.182   4.720   4.336
 2626SOL     OW 7889   3.703   3.899   4.687
 2626SOL    HW1 7890   3.742   3.814   4.651
 2626SOL    HW2 7891   3.605   3.901   4.668
 2627SOL     OW 7892   2.125   4.050   4.444
 2627SOL    HW1 7893   2.046   4.101   4.410
 2627SOL    HW2 7894   2.116   4.035   4.542
 2628SOL     OW 7895   2.778   4.634   4.015
 2628SOL    HW1 7896   2.841   4.672   3.947
 2628SOL    HW2 7897   2.818   4.551   4.054
 2629SOL     OW 7898   1.937   4.069   3.757
 2629SOL    HW1 7899   1.845   4.041   3.728
 2629SOL    HW2 7900   1.968   4.146   3.701
 2630SOL     OW 7901   1.934   3.890   4.042
 2630SOL    HW1 7902   1.917   3.973   3.988
 2630SOL    HW2 7903   2.024   3.853   4.020
 2631SOL     OW 7904   3.536   4.607   4.978
 2631SOL    HW1 7905   3.509   4.518   4.941
 2631SOL    HW2 7906   3.537   4.675   4.905
 2632SOL     OW 7907   3.087   4.049   4.173
 2632SOL    HW1 7908   3.152   3.975   4.162
 2632SOL    HW2 7909   3.107   4.099   4.257
 2633SOL     OW 7910   2.456   4.469   4.376
 2633SOL    HW1 7911   2.506   4.554   4.357
 2633SOL    HW2 7912   2.368   4.471   4.328
 2634SOL     OW 7913   2.290   4.148   4.244
 2634SOL    HW1 7914   2.320   4.076   4.182
 2634SOL    HW2 7915   2.251   4.108   4.327
 2635SOL     OW 7916   3.214   3.776   3.892
 2635SOL    HW1 7917   3.249   3.735   3.808
 2635SOL    HW2 7918   3.124   3.738   3.912
 2636SOL     OW 7919   3.162   4.177   4.415
 2636SOL    HW1 7920   3.103   4.257   4.419
 2636SOL    HW2 7921   3.177   4.142   4.508
 2637SOL     OW 7922   3.455   3.945   4.606
 2637SOL    HW1 7923   3.371   3.944   4.660
 2637SOL    HW2 7924   3.457   4.028   4.550
 2638SOL     OW 7925   3.954   0.628   0.113
 2638SOL    HW1 7926   3.861   0.626   0.150
 2638SOL    HW2 7927   3.955   0.589   0.021
 2639SOL     OW 7928   3.949   0.275   0.996
 2639SOL    HW1 7929   3.984   0.258   1.088
 2639SOL    HW2 7930   3.861   0.230   0.984
 2640SOL     OW 7931   3.743   0.368   0.647
 2640SOL    HW1 7932   3.661   0.411   0.686
 2640SOL    HW2 7933   3.715   0.295   0.584
 2641SOL     OW 7934   4.293   1.275   1.165
 2641SOL    HW1 7935   4.200   1.268   1.128
 2641SOL    HW2 7936   4.304   1.364   1.209
 2642SOL     OW 7937   4.492   1.144   1.023
 2642SOL    HW1 7938   4.414   1.161   1.083
 2642SOL    HW2 7939   4.526   1.231   0.987
 2643SOL     OW 7940   4.574   0.798   1.823
 2643SOL    HW1 7941   4.570   0.874   1.888
 2643SOL    HW2 7942   4.596   0.834   1.732
 2644SOL     OW 7943   4.409   1.012   0.665
 2644SOL    HW1 7944   4.478   0.996   0.735
 2644SOL    HW2 7945   4.336   1.069   0.703
 2645SOL     OW 7946   4.410   1.161   1.803
 2645SOL    HW1 7947   4.470   1.240   1.817
 2645SOL    HW2 7948   4.324   1.192   1.762
 2646SOL     OW 7949   4.059   1.435   1.061
 2646SOL    HW1 7950   3.981   1.404   1.008
 2646SOL    HW2 7951   4.117   1.493   1.004
 2647SOL     OW 7952   4.162   0.392   1.499
 2647SOL    HW1 7953   4.244   0.336   1.508
 2647SOL    HW2 7954   4.081   0.334   1.503
 2648SOL     OW 7955   3.955   1.713   0.483
 2648SOL    HW1 7956   3.989   1.790   0.537
 2648SOL    HW2 7957   3.999   1.713   0.393
 2649SOL     OW 7958   3.954   1.434   0.538
 2649SOL    HW1 7959   3.928   1.530   0.538
 2649SOL    HW2 7960   3.883   1.380   0.583
 2650SOL     OW 7961   3.964   1.091   0.886
 2650SOL    HW1 7962   3.978   1.007   0.938
 2650SOL    HW2 7963   3.909   1.155   0.941
 2651SOL     OW 7964   4.344   1.786   1.439
 2651SOL    HW1 7965   4.252   1.769   1.474
 2651SOL    HW2 7966   4.372   1.878   1.465
 2652SOL     OW 7967   4.330   0.964   0.123
 2652SOL    HW1 7968   4.337   1.048   0.069
 2652SOL    HW2 7969   4.376   0.977   0.211
 2653SOL     OW 7970   3.846   0.643   0.563
 2653SOL    HW1 7971   3.801   0.555   0.580
 2653SOL    HW2 7972   3.845   0.697   0.647
 2654SOL     OW 7973   3.751   1.596   0.117
 2654SOL    HW1 7974   3.732   1.500   0.138
 2654SOL    HW2 7975   3.718   1.654   0.192
 2655SOL     OW 7976   3.837   0.737   1.597
 2655SOL    HW1 7977   3.925   0.724   1.642
 2655SOL    HW2 7978   3.824   0.834   1.575
 2656SOL     OW 7979   4.337   1.365   0.726
 2656SOL    HW1 7980   4.288   1.278   0.735
 2656SOL    HW2 7981   4.314   1.408   0.639
 2657SOL     OW 7982   4.533   0.004   0.502
 2657SOL    HW1 7983   4.573   0.095   0.493
 2657SOL    HW2 7984   4.433   0.012   0.508
 2658SOL     OW 7985   3.921   0.976   1.264
 2658SOL    HW1 7986   4.010   0.931   1.250
 2658SOL    HW2 7987   3.848   0.911   1.245
 2659SOL     OW 7988   4.041   0.251   1.801
 2659SOL    HW1 7989   4.112   0.322   1.807
 2659SOL    HW2 7990   3.953   0.290   1.829
 2660SOL     OW 7991   4.322   0.729   0.270
 2660SOL    HW1 7992   4.346   0.798   0.202
 2660SOL    HW2 7993   4.244   0.762   0.324
 2661SOL     OW 7994   4.531   0.605   1.465
 2661SOL    HW1 7995   4.484   0.602   1.554
 2661SOL    HW2 7996   4.480   0.550   1.399
 2662SOL     OW 7997   3.800   0.811   0.789
 2662SOL    HW1 7998   3.899   0.799   0.798
 2662SOL    HW2 7999   3.776   0.906   0.810
 2663SOL     OW 8000   3.854   1.821   1.571
 2663SOL    HW1 8001   3.844   1.806   1.670
 2663SOL    HW2 8002   3.768   1.857   1.535
 2664SOL     OW 8003   4.589   0.348   0.195
 2664SOL    HW1 8004   4.648   0.411   0.146
 2664SOL    HW2 8005   4.608   0.254   0.166
 2665SOL     OW 8006   4.274   0.196   0.885
 2665SOL    HW1 8007   4.269   0.191   0.985
 2665SOL    HW2 8008   4.276   0.292   0.856
 2666SOL     OW 8009   4.732   1.456   0.477
 2666SOL    HW1 8010   4.686   1.528   0.425
 2666SOL    HW2 8011   4.728   1.476   0.575
 2667SOL     OW 8012   4.075   1.801   0.853
 2667SOL    HW1 8013   4.125   1.715   0.859
 2667SOL    HW2 8014   4.140   1.878   0.850
 2668SOL     OW 8015   4.045   0.943   0.242
 2668SOL    HW1 8016   4.127   0.982   0.200
 2668SOL    HW2 8017   4.018   0.861   0.193
 2669SOL     OW 8018   4.185   1.266   1.727
 2669SOL    HW1 8019   4.135   1.267   1.641
 2669SOL    HW2 8020   4.122   1.248   1.803
 2670SOL     OW 8021   4.835   1.776   0.237
 2670SOL    HW1 8022   4.775   1.714   0.287
 2670SOL    HW2 8023   4.866   1.732   0.152
 2671SOL     OW 8024   3.926   0.285   1.498
 2671SOL    HW1 8025   3.846   0.345   1.485
 2671SOL    HW2 8026   3.916   0.236   1.584
 2672SOL     OW 8027   4.188   1.743   0.323
 2672SOL    HW1 8028   4.221   1.782   0.409
 2672SOL    HW2 8029   4.264   1.736   0.258
 2673SOL     OW 8030   3.973   1.785   1.241
 2673SOL    HW1 8031   4.030   1.720   1.291
 2673SOL    HW2 8032   3.957   1.752   1.148
 2674SOL     OW 8033   4.106   0.700   0.480
 2674SOL    HW1 8034   4.151   0.610   0.477
 2674SOL    HW2 8035   4.012   0.689   0.513
 2675SOL     OW 8036   4.338   0.122   0.117
 2675SOL    HW1 8037   4.436   0.100   0.124
 2675SOL    HW2 8038   4.307   0.105   0.024
 2676SOL     OW 8039   4.505   0.264   1.749
 2676SOL    HW1 8040   4.572   0.203   1.792
 2676SOL    HW2 8041   4.432   0.283   1.814
 2677SOL     OW 8042   4.527   1.402   0.924
 2677SOL    HW1 8043   4.617   1.416   0.882
 2677SOL    HW2 8044   4.456   1.404   0.853
 2678SOL     OW 8045   4.646   0.503   0.899
 2678SOL    HW1 8046   4.621   0.494   0.803
 2678SOL    HW2 8047   4.694   0.421   0.930
 2679SOL     OW 8048   4.263   0.064   0.512
 2679SOL    HW1 8049   4.182   0.065   0.570
 2679SOL    HW2 8050   4.266   0.147   0.457
 2680SOL     OW 8051   4.021   0.035   0.171
 2680SOL    HW1 8052   4.070   0.119   0.150
 2680SOL    HW2 8053   4.083  -0.030   0.216
 2681SOL     OW 8054   4.183   1.152   0.741
 2681SOL    HW1 8055   4.112   1.125   0.806
 2681SOL    HW2 8056   4.157   1.124   0.648
 2682SOL     OW 8057   3.802   0.556   1.386
 2682SOL    HW1 8058   3.894   0.555   1.345
 2682SOL    HW2 8059   3.796   0.630   1.453
 2683SOL     OW 8060   4.285   0.222   1.147
 2683SOL    HW1 8061   4.323   0.138   1.184
 2683SOL    HW2 8062   4.197   0.241   1.191
 2684SOL     OW 8063   4.212   1.385   0.174
 2684SOL    HW1 8064   4.125   1.370   0.221
 2684SOL    HW2 8065   4.195   1.411   0.079
 2685SOL     OW 8066   4.251   0.256   0.328
 2685SOL    HW1 8067   4.278   0.197   0.253
 2685SOL    HW2 8068   4.251   0.351   0.297
 2686SOL     OW 8069   4.639   0.089   1.402
 2686SOL    HW1 8070   4.664   0.069   1.307
 2686SOL    HW2 8071   4.711   0.145   1.444
 2687SOL     OW 8072   4.429   1.050   0.368
 2687SOL    HW1 8073   4.415   1.057   0.467
 2687SOL    HW2 8074   4.513   0.999   0.350
 2688SOL     OW 8075   4.134   0.813   1.251
 2688SOL    HW1 8076   4.220   0.825   1.301
 2688SOL    HW2 8077   4.092   0.726   1.278
 2689SOL     OW 8078   3.788   1.564   1.331
 2689SOL    HW1 8079   3.742   1.646   1.297
 2689SOL    HW2 8080   3.886   1.583   1.340
 2690SOL     OW 8081   4.091   1.100   0.501
 2690SOL    HW1 8082   4.084   1.183   0.445
 2690SOL    HW2 8083   4.095   1.020   0.441
 2691SOL     OW 8084   4.290   0.537   0.865
 2691SOL    HW1 8085   4.302   0.603   0.791
 2691SOL    HW2 8086   4.336   0.571   0.948
 2692SOL     OW 8087   4.078   1.510   1.329
 2692SOL    HW1 8088   4.057   1.466   1.242
 2692SOL    HW2 8089   4.175   1.536   1.332
 2693SOL     OW 8090   4.126   0.751   1.598
 2693SOL    HW1 8091   4.194   0.806   1.551
 2693SOL    HW2 8092   4.166   0.663   1.625
 2694SOL     OW 8093   4.228   0.050   1.740
 2694SOL    HW1 8094   4.186  -0.007   1.670
 2694SOL    HW2 8095   4.162   0.119   1.772
 2695SOL     OW 8096   4.297   0.870   1.029
 2695SOL    HW1 8097   4.341   0.959   1.020
 2695SOL    HW2 8098   4.234   0.870   1.106
 2696SOL     OW 8099   4.031   0.213   1.231
 2696SOL    HW1 8100   4.008   0.250   1.321
 2696SOL    HW2 8101   4.001   0.118   1.225
 2697SOL     OW 8102   3.761   1.310   1.282
 2697SOL    HW1 8103   3.814   1.261   1.350
 2697SOL    HW2 8104   3.783   1.408   1.287
 2698SOL     OW 8105   4.456   0.634   1.064
 2698SOL    HW1 8106   4.515   0.608   0.988
 2698SOL    HW2 8107   4.428   0.730   1.053
 2699SOL     OW 8108   4.031   0.063   0.618
 2699SOL    HW1 8109   4.020   0.157   0.651
 2699SOL    HW2 8110   4.026   0.000   0.695
 2700SOL     OW 8111   4.747   0.766   0.966
 2700SOL    HW1 8112   4.762   0.787   1.062
 2700SOL    HW2 8113   4.717   0.671   0.957
 2701SOL     OW 8114   4.704   1.573   1.700
 2701SOL    HW1 8115   4.684   1.617   1.612
 2701SOL    HW2 8116   4.743   1.482   1.684
 2702SOL     OW 8117   4.074   0.898   1.804
 2702SOL    HW1 8118   4.150   0.942   1.852
 2702SOL    HW2 8119   4.109   0.851   1.722
 2703SOL     OW 8120   4.043   0.810   0.949
 2703SOL    HW1 8121   4.136   0.846   0.954
 2703SOL    HW2 8122   4.037   0.725   1.001
 2704SOL     OW 8123   4.063   0.509   1.006
 2704SOL    HW1 8124   4.011   0.426   0.989
 2704SOL    HW2 8125   4.140   0.514   0.942
 2705SOL     OW 8126   3.732   1.326   0.200
 2705SOL    HW1 8127   3.639   1.347   0.169
 2705SOL    HW2 8128   3.742   1.227   0.213
 2706SOL     OW 8129   3.812   1.801   0.927
 2706SOL    HW1 8130   3.770   1.715   0.900
 2706SOL    HW2 8131   3.906   1.804   0.893
 2707SOL     OW 8132   4.228   1.568   0.910
 2707SOL    HW1 8133   4.294   1.642   0.919
 2707SOL    HW2 8134   4.272   1.489   0.868
 2708SOL     OW 8135   3.764   0.544   1.114
 2708SOL    HW1 8136   3.849   0.511   1.073
 2708SOL    HW2 8137   3.777   0.559   1.212
 2709SOL     OW 8138   3.913   0.520   1.722
 2709SOL    HW1 8139   3.972   0.480   1.652
 2709SOL    HW2 8140   3.855   0.591   1.681
 2710SOL     OW 8141   4.539   0.572   0.325
 2710SOL    HW1 8142   4.546   0.483   0.279
 2710SOL    HW2 8143   4.445   0.606   0.317
 2711SOL     OW 8144   3.976   1.564   1.744
 2711SOL    HW1 8145   3.946   1.621   1.820
 2711SOL    HW2 8146   3.969   1.467   1.770
 2712SOL     OW 8147   4.395   0.464   1.269
 2712SOL    HW1 8148   4.361   0.375   1.239
 2712SOL    HW2 8149   4.421   0.518   1.189
 2713SOL     OW 8150   4.197   0.500   0.191
 2713SOL    HW1 8151   4.258   0.580   0.195
 2713SOL    HW2 8152   4.102   0.531   0.198
 2714SOL     OW 8153   3.883   1.137   1.466
 2714SOL    HW1 8154   3.905   1.076   1.542
 2714SOL    HW2 8155   3.893   1.088   1.380
 2715SOL     OW 8156   3.807   1.258   1.022
 2715SOL    HW1 8157   3.802   1.257   1.122
 2715SOL    HW2 8158   3.724   1.217   0.984
 2716SOL     OW 8159   4.412   1.662   1.716
 2716SOL    HW1 8160   4.356   1.743   1.725
 2716SOL    HW2 8161   4.464   1.666   1.630
 2717SOL     OW 8162   4.627   0.086   0.133
 2717SOL    HW1 8163   4.678   0.087   0.047
 2717SOL    HW2 8164   4.683   0.044   0.204
 2718SOL     OW 8165   3.854   1.794   1.851
 2718SOL    HW1 8166   3.813   1.720   1.904
 2718SOL    HW2 8167   3.918   1.845   1.909
 2719SOL     OW 8168   4.554   1.273   1.422
 2719SOL    HW1 8169   4.549   1.306   1.517
 2719SOL    HW2 8170   4.468   1.292   1.376
 2720SOL     OW 8171   4.396   1.616   0.154
 2720SOL    HW1 8172   4.405   1.626   0.055
 2720SOL    HW2 8173   4.356   1.527   0.175
 2721SOL     OW 8174   3.987   0.326   0.720
 2721SOL    HW1 8175   3.908   0.377   0.686
 2721SOL    HW2 8176   3.978   0.311   0.818
 2722SOL     OW 8177   4.918   1.612   0.031
 2722SOL    HW1 8178   4.924   1.519   0.068
 2722SOL    HW2 8179   4.859   1.612  -0.049
 2723SOL     OW 8180   4.546   1.002   1.372
 2723SOL    HW1 8181   4.586   1.001   1.280
 2723SOL    HW2 8182   4.556   1.094   1.412
 2724SOL     OW 8183   4.096   1.288   1.490
 2724SOL    HW1 8184   4.083   1.381   1.456
 2724SOL    HW2 8185   4.012   1.236   1.477
 2725SOL     OW 8186   4.314   1.487   0.491
 2725SOL    HW1 8187   4.356   1.429   0.421
 2725SOL    HW2 8188   4.270   1.566   0.447
 2726SOL     OW 8189   3.979   1.348   0.290
 2726SOL    HW1 8190   3.883   1.349   0.263
 2726SOL    HW2 8191   3.991   1.401   0.374
 2727SOL     OW 8192   3.829   1.013   1.726
 2727SOL    HW1 8193   3.752   0.980   1.780
 2727SOL    HW2 8194   3.914   0.983   1.768
 2728SOL     OW 8195   4.396   0.203   1.489
 2728SOL    HW1 8196   4.486   0.187   1.449
 2728SOL    HW2 8197   4.404   0.208   1.588
 2729SOL     OW 8198   4.337   0.842   1.431
 2729SOL    HW1 8199   4.393   0.923   1.414
 2729SOL    HW2 8200   4.396   0.762   1.434
 2730SOL     OW 8201   4.440   0.565   1.708
 2730SOL    HW1 8202   4.459   0.630   1.782
 2730SOL    HW2 8203   4.500   0.485   1.717
 2731SOL     OW 8204   4.114   1.741   1.560
 2731SOL    HW1 8205   4.023   1.782   1.558
 2731SOL    HW2 8206   4.107   1.647   1.592
 2732SOL     OW 8207   4.318   0.745   0.652
 2732SOL    HW1 8208   4.368   0.830   0.633
 2732SOL    HW2 8209   4.230   0.747   0.604
 2733SOL     OW 8210   4.385   1.790   0.953
 2733SOL    HW1 8211   4.339   1.878   0.940
 2733SOL    HW2 8212   4.484   1.802   0.946
 2734SOL     OW 8213   4.583   0.956   0.861
 2734SOL    HW1 8214   4.637   0.887   0.909
 2734SOL    HW2 8215   4.551   1.025   0.927
 2735SOL     OW 8216   3.945   1.314   1.844
 2735SOL    HW1 8217   3.880   1.241   1.823
 2735SOL    HW2 8218   3.949   1.328   1.942
 2736SOL     OW 8219   3.803   1.240   0.653
 2736SOL    HW1 8220   3.802   1.193   0.741
 2736SOL    HW2 8221   3.885   1.212   0.602
 2737SOL     OW 8222   4.396   1.391   1.624
 2737SOL    HW1 8223   4.318   1.341   1.662
 2737SOL    HW2 8224   4.393   1.486   1.655
 2738SOL     OW 8225   4.152   0.424   0.520
 2738SOL    HW1 8226   4.182   0.352   0.458
 2738SOL    HW2 8227   4.113   0.384   0.603
 2739SOL     OW 8228   4.041   0.547   1.280
 2739SOL    HW1 8229   4.079   0.488   1.352
 2739SOL    HW2 8230   4.081   0.521   1.192
 2740SOL     OW 8231   4.536   1.586   0.687
 2740SOL    HW1 8232   4.568   1.596   0.593
 2740SOL    HW2 8233   4.457   1.524   0.689
 2741SOL     OW 8234   4.725   0.034   1.154
 2741SOL    HW1 8235   4.662  -0.038   1.123
 2741SOL    HW2 8236   4.818  -0.002   1.154
 2742SOL     OW 8237   4.494   1.330   0.301
 2742SOL    HW1 8238   4.448   1.243   0.318
 2742SOL    HW2 8239   4.585   1.327   0.342
 2743SOL     OW 8240   4.342   1.567   1.284
 2743SOL    HW1 8241   4.337   1.649   1.341
 2743SOL    HW2 8242   4.431   1.564   1.239
 2744SOL     OW 8243   3.763   1.077   0.300
 2744SOL    HW1 8244   3.862   1.066   0.291
 2744SOL    HW2 8245   3.723   0.991   0.332
 2745SOL     OW 8246   4.599   1.646   0.337
 2745SOL    HW1 8247   4.522   1.611   0.283
 2745SOL    HW2 8248   4.567   1.717   0.399
 2746SOL     OW 8249   3.954   0.628   1.975
 2746SOL    HW1 8250   3.861   0.626   2.012
 2746SOL    HW2 8251   3.955   0.589   1.883
 2747SOL     OW 8252   3.949   0.275   2.858
 2747SOL    HW1 8253   3.984   0.258   2.950
 2747SOL    HW2 8254   3.861   0.230   2.846
 2748SOL     OW 8255   3.743   0.368   2.509
 2748SOL    HW1 8256   3.661   0.411   2.548
 2748SOL    HW2 8257   3.715   0.295   2.446
 2749SOL     OW 8258   4.293   1.275   3.027
 2749SOL    HW1 8259   4.200   1.268   2.990
 2749SOL    HW2 8260   4.304   1.364   3.071
 2750SOL     OW 8261   4.492   1.144   2.885
 2750SOL    HW1 8262   4.414   1.161   2.945
 2750SOL    HW2 8263   4.526   1.231   2.849
 2751SOL     OW 8264   4.574   0.798   3.685
 2751SOL    HW1 8265   4.570   0.874   3.750
 2751SOL    HW2 8266   4.596   0.834   3.594
 2752SOL     OW 8267   4.409   1.012   2.527
 2752SOL    HW1 8268   4.478   0.996   2.597
 2752SOL    HW2 8269   4.336   1.069   2.565
 2753SOL     OW 8270   4.410   1.161   3.665
 2753SOL    HW1 8271   4.470   1.240   3.679
 2753SOL    HW2 8272   4.324   1.192   3.624
 2754SOL     OW 8273   4.059   1.435   2.923
 2754SOL    HW1 8274   3.981   1.404   2.870
 2754SOL    HW2 8275   4.117   1.493   2.866
 2755SOL     OW 8276   4.162   0.392   3.361
 2755SOL    HW1 8277   4.244   0.336   3.370
 2755SOL    HW2 8278   4.081   0.334   3.365
 2756SOL     OW 8279   3.955   1.713   2.345
 2756SOL    HW1 8280   3.989   1.790   2.399
 2756SOL    HW2 8281   3.999   1.713   2.255
 2757SOL     OW 8282   3.954   1.434   2.400
 2757SOL    HW1 8283   3.928   1.530   2.400
 2757SOL    HW2 8284   3.883   1.380   2.445
 2758SOL     OW 8285   3.964   1.091   2.748
 2758SOL    HW1 8286   3.978   1.007   2.800
 2758SOL    HW2 8287   3.909   1.155   2.803
 2759SOL     OW 8288   4.344   1.786   3.301
 2759SOL    HW1 8289   4.252   1.769   3.336
 2759SOL    HW2 8290   4.372   1.878   3.327
 2760SOL     OW 8291   4.330   0.964   1.985
 2760SOL    HW1 8292   4.337   1.048   1.931
 2760SOL    HW2 8293   4.376   0.977   2.073
 2761SOL     OW 8294   3.846   0.643   2.425
 2761SOL    HW1 8295   3.801   0.555   2.442
 2761SOL    HW2 8296   3.845   0.697   2.509
 2762SOL     OW 8297   3.751   1.596   1.979
 2762SOL    HW1 8298   3.732   1.500   2.000
 2762SOL    HW2 8299   3.718   1.654   2.054
 2763SOL     OW 8300   3.837   0.737   3.459
 2763SOL    HW1 8301   3.925   0.724   3.504
 2763SOL    HW2 8302   3.824   0.834   3.437
 2764SOL     OW 8303   4.337   1.365   2.588
 2764SOL    HW1 8304   4.288   1.278   2.597
 2764SOL    HW2 8305   4.314   1.408   2.501
 2765SOL     OW 8306   4.533   0.004   2.364
 2765SOL    HW1 8307   4.573   0.095   2.355
 2765SOL    HW2 8308   4.433   0.012   2.370
 2766SOL     OW 8309   3.921   0.976   3.126
 2766SOL    HW1 8310   4.010   0.931   3.112
 2766SOL    HW2 8311   3.848   0.911   3.107
 2767SOL     OW 8312   4.041   0.251   3.663
 2767SOL    HW1 8313   4.112   0.322   3.669
 2767SOL    HW2 8314   3.953   0.290   3.691
 2768SOL     OW 8315   4.322   0.729   2.132
 2768SOL    HW1 8316   4.346   0.798   2.064
 2768SOL    HW2 8317   4.244   0.762   2.186
 2769SOL     OW 8318   4.531   0.605   3.327
 2769SOL    HW1 8319   4.484   0.602   3.416
 2769SOL    HW2 8320   4.480   0.550   3.261
 2770SOL     OW 8321   3.800   0.811   2.651
 2770SOL    HW1 8322   3.899   0.799   2.660
 2770SOL    HW2 8323   3.776   0.906   2.672
 2771SOL     OW 8324   3.854   1.821   3.433
 2771SOL    HW1 8325   3.844   1.806   3.532
 2771SOL    HW2 8326   3.768   1.857   3.397
 2772SOL     OW 8327   4.589   0.348   2.057
 2772SOL    HW1 8328   4.648   0.411   2.008
 2772SOL    HW2 8329   4.608   0.254   2.028
 2773SOL     OW 8330   4.274   0.196   2.747
 2773SOL    HW1 8331   4.269   0.191   2.847
 2773SOL    HW2 8332   4.276   0.292   2.718
 2774SOL     OW 8333   4.732   1.456   2.339
 2774SOL    HW1 8334   4.686   1.528   2.287
 2774SOL    HW2 8335   4.728   1.476   2.437
 2775SOL     OW 8336   4.075   1.801   2.715
 2775SOL    HW1 8337   4.125   1.715   2.721
 2775SOL    HW2 8338   4.140   1.878   2.712
 2776SOL     OW 8339   4.045   0.943   2.104
 2776SOL    HW1 8340   4.127   0.982   2.062
 2776SOL    HW2 8341   4.018   0.861   2.055
 2777SOL     OW 8342   4.185   1.266   3.589
 2777SOL    HW1 8343   4.135   1.267   3.503
 2777SOL    HW2 8344   4.122   1.248   3.665
 2778SOL     OW 8345   4.835   1.776   2.099
 2778SOL    HW1 8346   4.775   1.714   2.149
 2778SOL    HW2 8347   4.866   1.732   2.014
 2779SOL     OW 8348   3.926   0.285   3.360
 2779SOL    HW1 8349   3.846   0.345   3.347
 2779SOL    HW2 8350   3.916   0.236   3.446
 2780SOL     OW 8351   4.188   1.743   2.185
 2780SOL    HW1 8352   4.221   1.782   2.271
 2780SOL    HW2 8353   4.264   1.736   2.120
 2781SOL     OW 8354   3.973   1.785   3.103
 2781SOL    HW1 8355   4.030   1.720   3.153
 2781SOL    HW2 8356   3.957   1.752   3.010
 2782SOL     OW 8357   4.106   0.700   2.342
 2782SOL    HW1 8358   4.151   0.610   2.339
 2782SOL    HW2 8359   4.012   0.689   2.375
 2783SOL     OW 8360   4.338   0.122   1.979
 2783SOL    HW1 8361   4.436   0.100   1.986
 2783SOL    HW2 8362   4.307   0.105   1.886
 2784SOL     OW 8363   4.505   0.264   3.611
 2784SOL    HW1 8364   4.572   0.203   3.654
 2784SOL    HW2 8365   4.432   0.283   3.676
 2785SOL     OW 8366   4.527   1.402   2.786
 2785SOL    HW1 8367   4.617   1.416   2.744
 2785SOL    HW2 8368   4.456   1.404   2.715
 2786SOL     OW 8369   4.646   0.503   2.761
 2786SOL    HW1 8370   4.621   0.494   2.665
 2786SOL    HW2 8371   4.694   0.421   2.792
 2787SOL     OW 8372   4.263   0.064   2.374
 2787SOL    HW1 8373   4.182   0.065   2.432
 2787SOL    HW2 8374   4.266   0.147   2.319
 2788SOL     OW 8375   4.021   0.035   2.033
 2788SOL    HW1 8376   4.070   0.119   2.012
 2788SOL    HW2 8377   4.083  -0.030   2.078
 2789SOL     OW 8378   4.183   1.152   2.603
 2789SOL    HW1 8379   4.112   1.125   2.668
 2789SOL    HW2 8380   4.157   1.124   2.510
 2790SOL     OW 8381   3.802   0.556   3.248
 2790SOL    HW1 8382   3.894   0.555   3.207
 2790SOL    HW2 8383   3.796   0.630   3.315
 2791SOL     OW 8384   4.285   0.222   3.009
 2791SOL    HW1 8385   4.323   0.138   3.046
 2791SOL    HW2 8386   4.197   0.241   3.053
 2792SOL     OW 8387   4.212   1.385   2.036
 2792SOL    HW1 8388   4.125   1.370   2.083
 2792SOL    HW2 8389   4.195   1.411   1.941
 2793SOL     OW 8390   4.251   0.256   2.190
 2793SOL    HW1 8391   4.278   0.197   2.115
 2793SOL    HW2 8392   4.251   0.351   2.159
 2794SOL     OW 8393   4.639   0.089   3.264
 2794SOL    HW1 8394   4.664   0.069   3.169
 2794SOL    HW2 8395   4.711   0.145   3.306
 2795SOL     OW 8396   4.429   1.050   2.230
 2795SOL    HW1 8397   4.415   1.057   2.329
 2795SOL    HW2 8398   4.513   0.999   2.212
 2796SOL     OW 8399   4.134   0.813   3.113
 2796SOL    HW1 8400   4.220   0.825   3.163
 2796SOL    HW2 8401   4.092   0.726   3.140
 2797SOL     OW 8402   3.788   1.564   3.193
 2797SOL    HW1 8403   3.742   1.646   3.159
 2797SOL    HW2 8404   3.886   1.583   3.202
 2798SOL     OW 8405   4.091   1.100   2.363
 2798SOL    HW1 8406   4.084   1.183   2.307
 2798SOL    HW2 8407   4.095   1.020   2.303
 2799SOL     OW 8408   4.290   0.537   2.727
 2799SOL    HW1 8409   4.302   0.603   2.653
 2799SOL    HW2 8410   4.336   0.571   2.810
 2800SOL     OW 8411   4.078   1.510   3.191
 2800SOL    HW1 8412   4.057   1.466   3.104
 2800SOL    HW2 8413   4.175   1.536   3.194
 2801SOL     OW 8414   4.126   0.751   3.460
 2801SOL    HW1 8415   4.194   0.806   3.413
 2801SOL    HW2 8416   4.166   0.663   3.487
 2802SOL     OW 8417   4.228   0.050   3.602
 2802SOL    HW1 8418   4.186  -0.007   3.532
 2802SOL    HW2 8419   4.162   0.119   3.634
 2803SOL     OW 8420   4.297   0.870   2.891
 2803SOL    HW1 8421   4.341   0.959   2.882
 2803SOL    HW2 8422   4.234   0.870   2.968
 2804SOL     OW 8423   4.031   0.213   3.093
 2804SOL    HW1 8424   4.008   0.250   3.183
 2804SOL    HW2 8425   4.001   0.118   3.087
 2805SOL     OW 8426   3.761   1.310   3.144
 2805SOL    HW1 8427   3.814   1.261   3.212
 2805SOL    HW2 8428   3.783   1.408   3.149
 2806SOL     OW 8429   4.456   0.634   2.926
 2806SOL    HW1 8430   4.515   0.608   2.850
 2806SOL    HW2 8431   4.428   0.730   2.915
 2807SOL     OW 8432   4.031   0.063   2.480
 2807SOL    HW1 8433   4.020   0.157   2.513
 2807SOL    HW2 8434   4.026   0.000   2.557
 2808SOL     OW 8435   4.747   0.766   2.828
 2808SOL    HW1 8436   4.762   0.787   2.924
 2808SOL    HW2 8437   4.717   0.671   2.819
 2809SOL     OW 8438   4.704   1.573   3.562
 2809SOL    HW1 8439   4.684   1.617   3.474
 2809SOL    HW2 8440   4.743   1.482   3.546
 2810SOL     OW 8441   4.074   0.898   3.666
 2810SOL    HW1 8442   4.150   0.942   3.714
 2810SOL    HW2 8443   4.109   0.851   3.584
 2811SOL     OW 8444   4.043   0.810   2.811
 2811SOL    HW1 8445   4.136   0.846   2.816
 2811SOL    HW2 8446   4.037   0.725   2.863
 2812SOL     OW 8447   4.063   0.509   2.868
 2812SOL    HW1 8448   4.011   0.426   2.851
 2812SOL    HW2 8449   4.140   0.514   2.804
 2813SOL     OW 8450   3.732   1.326   2.062
 2813SOL    HW1 8451   3.639   1.347   2.031
 2813SOL    HW2 8452   3.742   1.227   2.075
 2814SOL     OW 8453   3.812   1.801   2.789
 2814SOL    HW1 8454   3.770   1.715   2.762
 2814SOL    HW2 8455   3.906   1.804   2.755
 2815SOL     OW 8456   4.228   1.568   2.772
 2815SOL    HW1 8457   4.294   1.642   2.781
 2815SOL    HW2 8458   4.272   1.489   2.730
 2816SOL     OW 8459   3.764   0.544   2.976
 2816SOL    HW1 8460   3.849   0.511   2.935
 2816SOL    HW2 8461   3.777   0.559   3.074
 2817SOL     OW 8462   3.913   0.520   3.584
 2817SOL    HW1 8463   3.972   0.480   3.514
 2817SOL    HW2 8464   3.855   0.591   3.543
 2818SOL     OW 8465   4.539   0.572   2.187
 2818SOL    HW1 8466   4.546   0.483   2.141
 2818SOL    HW2 8467   4.445   0.606   2.179
 2819SOL     OW 8468   3.976   1.564   3.606
 2819SOL    HW1 8469   3.946   1.621   3.682
 2819SOL    HW2 8470   3.969   1.467   3.632
 2820SOL     OW 8471   4.395   0.464   3.131
 2820SOL    HW1 8472   4.361   0.375   3.101
 2820SOL    HW2 8473   4.421   0.518   3.051
 2821SOL     OW 8474   4.197   0.500   2.053
 2821SOL    HW1 8475   4.258   0.580   2.057
 2821SOL    HW2 8476   4.102   0.531   2.060
 2822SOL     OW 8477   3.883   1.137   3.328
 2822SOL    HW1 8478   3.905   1.076   3.404
 2822SOL    HW2 8479   3.893   1.088   3.242
 2823SOL     OW 8480   3.807   1.258   2.884
 2823SOL    HW1 8481   3.802   1.257   2.984
 2823SOL    HW2 8482   3.724   1.217   2.846
 2824SOL     OW 8483   4.412   1.662   3.578
 2824SOL    HW1 8484   4.356   1.743   3.587
 2824SOL    HW2 8485   4.464   1.666   3.492
 2825SOL     OW 8486   4.627   0.086   1.995
 2825SOL    HW1 8487   4.678   0.087   1.909
 2825SOL    HW2 8488   4.683   0.044   2.066
 2826SOL     OW 8489   3.854   1.794   3.713
 2826SOL    HW1 8490   3.813   1.720   3.766
 2826SOL    HW2 8491   3.918   1.845   3.771
 2827SOL     OW 8492   4.554   1.273   3.284
 2827SOL    HW1 8493   4.549   1.306   3.379
 2827SOL    HW2 8494   4.468   1.292   3.238
 2828SOL     OW 8495   4.396   1.616   2.016
 2828SOL    HW1 8496   4.405   1.626   1.917
 2828SOL    HW2 8497   4.356   1.527   2.037
 2829SOL     OW 8498   3.987   0.326   2.582
 2829SOL    HW1 8499   3.908   0.377   2.548
 2829SOL    HW2 8500   3.978   0.311   2.680
 2830SOL     OW 8501   4.546   1.002   3.234
 2830SOL    HW1 8502   4.586   1.001   3.142
 2830SOL    HW2 8503   4.556   1.094   3.274
 2831SOL     OW 8504   4.096   1.288   3.352
 2831SOL    HW1 8505   4.083   1.381   3.318
 2831SOL    HW2 8506   4.012   1.236   3.339
 2832SOL     OW 8507   4.314   1.487   2.353
 2832SOL    HW1 8508   4.356   1.429   2.283
 2832SOL    HW2 8509   4.270   1.566   2.309
 2833SOL     OW 8510   3.979   1.348   2.152
 2833SOL    HW1 8511   3.883   1.349   2.125
 2833SOL    HW2 8512   3.991   1.401   2.236
 2834SOL     OW 8513   3.829   1.013   3.588
 2834SOL    HW1 8514   3.752   0.980   3.642
 2834SOL    HW2 8515   3.914   0.983   3.630
 2835SOL     OW 8516   4.396   0.203   3.351
 2835SOL    HW1 8517   4.486   0.187   3.311
 2835SOL    HW2 8518   4.404   0.208   3.450
 2836SOL     OW 8519   3.799   0.345   1.895
 2836SOL    HW1 8520   3.707   0.317   1.866
 2836SOL    HW2 8521   3.830   0.422   1.839
 2837SOL     OW 8522   3.796   0.166   2.180
 2837SOL    HW1 8523   3.779   0.249   2.126
 2837SOL    HW2 8524   3.886   0.129   2.158
 2838SOL     OW 8525   4.337   0.842   3.293
 2838SOL    HW1 8526   4.393   0.923   3.276
 2838SOL    HW2 8527   4.396   0.762   3.296
 2839SOL     OW 8528   4.440   0.565   3.570
 2839SOL    HW1 8529   4.459   0.630   3.644
 2839SOL    HW2 8530   4.500   0.485   3.579
 2840SOL     OW 8531   4.114   1.741   3.422
 2840SOL    HW1 8532   4.023   1.782   3.420
 2840SOL    HW2 8533   4.107   1.647   3.454
 2841SOL     OW 8534   4.318   0.745   2.514
 2841SOL    HW1 8535   4.368   0.830   2.495
 2841SOL    HW2 8536   4.230   0.747   2.466
 2842SOL     OW 8537   4.385   1.790   2.815
 2842SOL    HW1 8538   4.339   1.878   2.802
 2842SOL    HW2 8539   4.484   1.802   2.808
 2843SOL     OW 8540   4.583   0.956   2.723
 2843SOL    HW1 8541   4.637   0.887   2.771
 2843SOL    HW2 8542   4.551   1.025   2.789
 2844SOL     OW 8543   3.945   1.314   3.706
 2844SOL    HW1 8544   3.880   1.241   3.685
 2844SOL    HW2 8545   3.949   1.328   3.804
 2845SOL     OW 8546   3.803   1.240   2.515
 2845SOL    HW1 8547   3.802   1.193   2.603
 2845SOL    HW2 8548   3.885   1.212   2.464
 2846SOL     OW 8549   4.396   1.391   3.486
 2846SOL    HW1 8550   4.318   1.341   3.524
 2846SOL    HW2 8551   4.393   1.486   3.517
 2847SOL     OW 8552   4.152   0.424   2.382
 2847SOL    HW1 8553   4.182   0.352   2.320
 2847SOL    HW2 8554   4.113   0.384   2.465
 2848SOL     OW 8555   4.041   0.547   3.142
 2848SOL    HW1 8556   4.079   0.488   3.214
 2848SOL    HW2 8557   4.081   0.521   3.054
 2849SOL     OW 8558   4.536   1.586   2.549
 2849SOL    HW1 8559   4.568   1.596   2.455
 2849SOL    HW2 8560   4.457   1.524   2.551
 2850SOL     OW 8561   4.725   0.034   3.016
 2850SOL    HW1 8562   4.662  -0.038   2.985
 2850SOL    HW2 8563   4.818  -0.002   3.016
 2851SOL     OW 8564   4.494   1.330   2.163
 2851SOL    HW1 8565   4.448   1.243   2.180
 2851SOL    HW2 8566   4.585   1.327   2.204
 2852SOL     OW 8567   4.342   1.567   3.146
 2852SOL    HW1 8568   4.337   1.649   3.203
 2852SOL    HW2 8569   4.431   1.564   3.101
 2853SOL     OW 8570   3.763   1.077   2.162
 2853SOL    HW1 8571   3.862   1.066   2.153
 2853SOL    HW2 8572   3.723   0.991   2.194
 2854SOL     OW 8573   4.599   1.646   2.199
 2854SOL    HW1 8574   4.522   1.611   2.145
 2854SOL    HW2 8575   4.567   1.717   2.261
 2855SOL     OW 8576   3.954   0.628   3.837
 2855SOL    HW1 8577   3.861   0.626   3.874
 2855SOL    HW2 8578   3.955   0.589   3.745
 2856SOL     OW 8579   3.949   0.275   4.720
 2856SOL    HW1 8580   3.984   0.258   4.812
 2856SOL    HW2 8581   3.861   0.230   4.708
 2857SOL     OW 8582   3.743   0.368   4.371
 2857SOL    HW1 8583   3.661   0.411   4.410
 2857SOL    HW2 8584   3.715   0.295   4.308
 2858SOL     OW 8585   4.492   1.144   4.747
 2858SOL    HW1 8586   4.414   1.161   4.807
 2858SOL    HW2 8587   4.526   1.231   4.711
 2859SOL     OW 8588   4.409   1.012   4.389
 2859SOL    HW1 8589   4.478   0.996   4.459
 2859SOL    HW2 8590   4.336   1.069   4.427
 2860SOL     OW 8591   3.955   1.713   4.207
 2860SOL    HW1 8592   3.989   1.790   4.261
 2860SOL    HW2 8593   3.999   1.713   4.117
 2861SOL     OW 8594   3.954   1.434   4.262
 2861SOL    HW1 8595   3.928   1.530   4.262
 2861SOL    HW2 8596   3.883   1.380   4.307
 2862SOL     OW 8597   3.964   1.091   4.610
 2862SOL    HW1 8598   3.978   1.007   4.662
 2862SOL    HW2 8599   3.909   1.155   4.665
 2863SOL     OW 8600   4.330   0.964   3.847
 2863SOL    HW1 8601   4.337   1.048   3.793
 2863SOL    HW2 8602   4.376   0.977   3.935
 2864SOL     OW 8603   3.846   0.643   4.287
 2864SOL    HW1 8604   3.801   0.555   4.304
 2864SOL    HW2 8605   3.845   0.697   4.371
 2865SOL     OW 8606   3.751   1.596   3.841
 2865SOL    HW1 8607   3.732   1.500   3.862
 2865SOL    HW2 8608   3.718   1.654   3.916
 2866SOL     OW 8609   4.337   1.365   4.450
 2866SOL    HW1 8610   4.288   1.278   4.459
 2866SOL    HW2 8611   4.314   1.408   4.363
 2867SOL     OW 8612   4.533   0.004   4.226
 2867SOL    HW1 8613   4.573   0.095   4.217
 2867SOL    HW2 8614   4.433   0.012   4.232
 2868SOL     OW 8615   4.322   0.729   3.994
 2868SOL    HW1 8616   4.346   0.798   3.926
 2868SOL    HW2 8617   4.244   0.762   4.048
 2869SOL     OW 8618   3.800   0.811   4.513
 2869SOL    HW1 8619   3.899   0.799   4.522
 2869SOL    HW2 8620   3.776   0.906   4.534
 2870SOL     OW 8621   4.589   0.348   3.919
 2870SOL    HW1 8622   4.648   0.411   3.870
 2870SOL    HW2 8623   4.608   0.254   3.890
 2871SOL     OW 8624   4.732   1.456   4.201
 2871SOL    HW1 8625   4.686   1.528   4.149
 2871SOL    HW2 8626   4.728   1.476   4.299
 2872SOL     OW 8627   4.075   1.801   4.577
 2872SOL    HW1 8628   4.125   1.715   4.583
 2872SOL    HW2 8629   4.140   1.878   4.574
 2873SOL     OW 8630   4.045   0.943   3.966
 2873SOL    HW1 8631   4.127   0.982   3.924
 2873SOL    HW2 8632   4.018   0.861   3.917
 2874SOL     OW 8633   4.835   1.776   3.961
 2874SOL    HW1 8634   4.775   1.714   4.011
 2874SOL    HW2 8635   4.866   1.732   3.876
 2875SOL     OW 8636   4.188   1.743   4.047
 2875SOL    HW1 8637   4.221   1.782   4.133
 2875SOL    HW2 8638   4.264   1.736   3.982
 2876SOL     OW 8639   4.106   0.700   4.204
 2876SOL    HW1 8640   4.151   0.610   4.201
 2876SOL    HW2 8641   4.012   0.689   4.237
 2877SOL     OW 8642   4.338   0.122   3.841
 2877SOL    HW1 8643   4.436   0.100   3.848
 2877SOL    HW2 8644   4.307   0.105   3.748
 2878SOL     OW 8645   4.527   1.402   4.648
 2878SOL    HW1 8646   4.617   1.416   4.606
 2878SOL    HW2 8647   4.456   1.404   4.577
 2879SOL     OW 8648   4.263   0.064   4.236
 2879SOL    HW1 8649   4.182   0.065   4.294
 2879SOL    HW2 8650   4.266   0.147   4.181
 2880SOL     OW 8651   4.021   0.035   3.895
 2880SOL    HW1 8652   4.070   0.119   3.874
 2880SOL    HW2 8653   4.083  -0.030   3.940
 2881SOL     OW 8654   4.183   1.152   4.465
 2881SOL    HW1 8655   4.112   1.125   4.530
 2881SOL    HW2 8656   4.157   1.124   4.372
 2882SOL     OW 8657   4.212   1.385   3.898
 2882SOL    HW1 8658   4.125   1.370   3.945
 2882SOL    HW2 8659   4.195   1.411   3.803
 2883SOL     OW 8660   4.251   0.256   4.052
 2883SOL    HW1 8661   4.278   0.197   3.977
 2883SOL    HW2 8662   4.251   0.351   4.021
 2884SOL     OW 8663   4.429   1.050   4.092
 2884SOL    HW1 8664   4.415   1.057   4.191
 2884SOL    HW2 8665   4.513   0.999   4.074
 2885SOL     OW 8666   4.998   0.386   4.986
 2885SOL    HW1 8667   5.019   0.460   5.050
 2885SOL    HW2 8668   4.909   0.403   4.943
 2886SOL     OW 8669   4.091   1.100   4.225
 2886SOL    HW1 8670   4.084   1.183   4.169
 2886SOL    HW2 8671   4.095   1.020   4.165
 2887SOL     OW 8672   4.290   0.537   4.589
 2887SOL    HW1 8673   4.302   0.603   4.515
 2887SOL    HW2 8674   4.336   0.571   4.672
 2888SOL     OW 8675   4.456   0.634   4.788
 2888SOL    HW1 8676   4.515   0.608   4.712
 2888SOL    HW2 8677   4.428   0.730   4.777
 2889SOL     OW 8678   4.031   0.063   4.342
 2889SOL    HW1 8679   4.020   0.157   4.375
 2889SOL    HW2 8680   4.026   0.000   4.419
 2890SOL     OW 8681   4.747   0.766   4.690
 2890SOL    HW1 8682   4.762   0.787   4.786
 2890SOL    HW2 8683   4.717   0.671   4.681
 2891SOL     OW 8684   3.732   1.326   3.924
 2891SOL    HW1 8685   3.639   1.347   3.893
 2891SOL    HW2 8686   3.742   1.227   3.937
 2892SOL     OW 8687   3.812   1.801   4.651
 2892SOL    HW1 8688   3.770   1.715   4.624
 2892SOL    HW2 8689   3.906   1.804   4.617
 2893SOL     OW 8690   4.228   1.568   4.634
 2893SOL    HW1 8691   4.294   1.642   4.643
 2893SOL    HW2 8692   4.272   1.489   4.592
 2894SOL     OW 8693   4.539   0.572   4.049
 2894SOL    HW1 8694   4.546   0.483   4.003
 2894SOL    HW2 8695   4.445   0.606   4.041
 2895SOL     OW 8696   4.197   0.500   3.915
 2895SOL    HW1 8697   4.258   0.580   3.919
 2895SOL    HW2 8698   4.102   0.531   3.922
 2896SOL     OW 8699   4.627   0.086   3.857
 2896SOL    HW1 8700   4.678   0.087   3.771
 2896SOL    HW2 8701   4.683   0.044   3.928
 2897SOL     OW 8702   4.396   1.616   3.878
 2897SOL    HW1 8703   4.405   1.626   3.779
 2897SOL    HW2 8704   4.356   1.527   3.899
 2898SOL     OW 8705   3.987   0.326   4.444
 2898SOL    HW1 8706   3.908   0.377   4.410
 2898SOL    HW2 8707   3.978   0.311   4.542
 2899SOL     OW 8708   4.314   1.487   4.215
 2899SOL    HW1 8709   4.356   1.429   4.145
 2899SOL    HW2 8710   4.270   1.566   4.171
 2900SOL     OW 8711   3.979   1.348   4.014
 2900SOL    HW1 8712   3.883   1.349   3.987
 2900SOL    HW2 8713   3.991   1.401   4.098
 2901SOL     OW 8714   3.799   0.345   3.757
 2901SOL    HW1 8715   3.707   0.317   3.728
 2901SOL    HW2 8716   3.830   0.422   3.701
 2902SOL     OW 8717   3.796   0.166   4.042
 2902SOL    HW1 8718   3.779   0.249   3.988
 2902SOL    HW2 8719   3.886   0.129   4.020
 2903SOL     OW 8720   4.318   0.745   4.376
 2903SOL    HW1 8721   4.368   0.830   4.357
 2903SOL    HW2 8722   4.230   0.747   4.328
 2904SOL     OW 8723   4.385   1.790   4.677
 2904SOL    HW1 8724   4.339   1.878   4.664
 2904SOL    HW2 8725   4.484   1.802   4.670
 2905SOL     OW 8726   4.583   0.956   4.585
 2905SOL    HW1 8727   4.637   0.887   4.633
 2905SOL    HW2 8728   4.551   1.025   4.651
 2906SOL     OW 8729   3.803   1.240   4.377
 2906SOL    HW1 8730   3.802   1.193   4.465
 2906SOL    HW2 8731   3.885   1.212   4.326
 2907SOL     OW 8732   4.152   0.424   4.244
 2907SOL    HW1 8733   4.182   0.352   4.182
 2907SOL    HW2 8734   4.113   0.384   4.327
 2908SOL     OW 8735   4.536   1.586   4.411
 2908SOL    HW1 8736   4.568   1.596   4.317
 2908SOL    HW2 8737   4.457   1.524   4.413
 2909SOL     OW 8738   4.494   1.330   4.025
 2909SOL    HW1 8739   4.448   1.243   4.042
 2909SOL    HW2 8740   4.585   1.327   4.066
 2910SOL     OW 8741   3.763   1.077   4.024
 2910SOL    HW1 8742   3.862   1.066   4.015
 2910SOL    HW2 8743   3.723   0.991   4.056
 2911SOL     OW 8744   4.599   1.646   4.061
 2911SOL    HW1 8745   4.522   1.611   4.007
 2911SOL    HW2 8746   4.567   1.717   4.123
 2912SOL     OW 8747   3.954   2.490   0.113
 2912SOL    HW1 8748   3.861   2.488   0.150
 2912SOL    HW2 8749   3.955   2.451   0.021
 2913SOL     OW 8750   3.949   2.137   0.996
 2913SOL    HW1 8751   3.984   2.120   1.088
 2913SOL    HW2 8752   3.861   2.092   0.984
 2914SOL     OW 8753   3.743   2.230   0.647
 2914SOL    HW1 8754   3.661   2.273   0.686
 2914SOL    HW2 8755   3.715   2.157   0.584
 2915SOL     OW 8756   4.293   3.137   1.165
 2915SOL    HW1 8757   4.200   3.130   1.128
 2915SOL    HW2 8758   4.304   3.226   1.209
 2916SOL     OW 8759   4.492   3.006   1.023
 2916SOL    HW1 8760   4.414   3.023   1.083
 2916SOL    HW2 8761   4.526   3.093   0.987
 2917SOL     OW 8762   4.574   2.660   1.823
 2917SOL    HW1 8763   4.570   2.736   1.888
 2917SOL    HW2 8764   4.596   2.696   1.732
 2918SOL     OW 8765   4.409   2.874   0.665
 2918SOL    HW1 8766   4.478   2.858   0.735
 2918SOL    HW2 8767   4.336   2.931   0.703
 2919SOL     OW 8768   4.410   3.023   1.803
 2919SOL    HW1 8769   4.470   3.102   1.817
 2919SOL    HW2 8770   4.324   3.054   1.762
 2920SOL     OW 8771   4.059   3.297   1.061
 2920SOL    HW1 8772   3.981   3.266   1.008
 2920SOL    HW2 8773   4.117   3.355   1.004
 2921SOL     OW 8774   4.162   2.254   1.499
 2921SOL    HW1 8775   4.244   2.198   1.508
 2921SOL    HW2 8776   4.081   2.196   1.503
 2922SOL     OW 8777   3.955   3.575   0.483
 2922SOL    HW1 8778   3.989   3.652   0.537
 2922SOL    HW2 8779   3.999   3.575   0.393
 2923SOL     OW 8780   3.954   3.296   0.538
 2923SOL    HW1 8781   3.928   3.392   0.538
 2923SOL    HW2 8782   3.883   3.242   0.583
 2924SOL     OW 8783   3.964   2.953   0.886
 2924SOL    HW1 8784   3.978   2.869   0.938
 2924SOL    HW2 8785   3.909   3.017   0.941
 2925SOL     OW 8786   4.344   3.648   1.439
 2925SOL    HW1 8787   4.252   3.631   1.474
 2925SOL    HW2 8788   4.372   3.740   1.465
 2926SOL     OW 8789   4.330   2.826   0.123
 2926SOL    HW1 8790   4.337   2.910   0.069
 2926SOL    HW2 8791   4.376   2.839   0.211
 2927SOL     OW 8792   3.846   2.505   0.563
 2927SOL    HW1 8793   3.801   2.417   0.580
 2927SOL    HW2 8794   3.845   2.559   0.647
 2928SOL     OW 8795   3.751   3.458   0.117
 2928SOL    HW1 8796   3.732   3.362   0.138
 2928SOL    HW2 8797   3.718   3.516   0.192
 2929SOL     OW 8798   3.837   2.599   1.597
 2929SOL    HW1 8799   3.925   2.586   1.642
 2929SOL    HW2 8800   3.824   2.696   1.575
 2930SOL     OW 8801   4.337   3.227   0.726
 2930SOL    HW1 8802   4.288   3.140   0.735
 2930SOL    HW2 8803   4.314   3.270   0.639
 2931SOL     OW 8804   4.533   1.866   0.502
 2931SOL    HW1 8805   4.573   1.957   0.493
 2931SOL    HW2 8806   4.433   1.874   0.508
 2932SOL     OW 8807   3.921   2.838   1.264
 2932SOL    HW1 8808   4.010   2.793   1.250
 2932SOL    HW2 8809   3.848   2.773   1.245
 2933SOL     OW 8810   4.041   2.113   1.801
 2933SOL    HW1 8811   4.112   2.184   1.807
 2933SOL    HW2 8812   3.953   2.152   1.829
 2934SOL     OW 8813   4.322   2.591   0.270
 2934SOL    HW1 8814   4.346   2.660   0.202
 2934SOL    HW2 8815   4.244   2.624   0.324
 2935SOL     OW 8816   4.531   2.467   1.465
 2935SOL    HW1 8817   4.484   2.464   1.554
 2935SOL    HW2 8818   4.480   2.412   1.399
 2936SOL     OW 8819   3.800   2.673   0.789
 2936SOL    HW1 8820   3.899   2.661   0.798
 2936SOL    HW2 8821   3.776   2.768   0.810
 2937SOL     OW 8822   3.854   3.683   1.571
 2937SOL    HW1 8823   3.844   3.668   1.670
 2937SOL    HW2 8824   3.768   3.719   1.535
 2938SOL     OW 8825   4.589   2.210   0.195
 2938SOL    HW1 8826   4.648   2.273   0.146
 2938SOL    HW2 8827   4.608   2.116   0.166
 2939SOL     OW 8828   4.274   2.058   0.885
 2939SOL    HW1 8829   4.269   2.053   0.985
 2939SOL    HW2 8830   4.276   2.154   0.856
 2940SOL     OW 8831   4.732   3.318   0.477
 2940SOL    HW1 8832   4.686   3.390   0.425
 2940SOL    HW2 8833   4.728   3.338   0.575
 2941SOL     OW 8834   4.075   3.663   0.853
 2941SOL    HW1 8835   4.125   3.577   0.859
 2941SOL    HW2 8836   4.140   3.740   0.850
 2942SOL     OW 8837   4.045   2.805   0.242
 2942SOL    HW1 8838   4.127   2.844   0.200
 2942SOL    HW2 8839   4.018   2.723   0.193
 2943SOL     OW 8840   4.185   3.128   1.727
 2943SOL    HW1 8841   4.135   3.129   1.641
 2943SOL    HW2 8842   4.122   3.110   1.803
 2944SOL     OW 8843   4.835   3.638   0.237
 2944SOL    HW1 8844   4.775   3.576   0.287
 2944SOL    HW2 8845   4.866   3.594   0.152
 2945SOL     OW 8846   3.926   2.147   1.498
 2945SOL    HW1 8847   3.846   2.207   1.485
 2945SOL    HW2 8848   3.916   2.098   1.584
 2946SOL     OW 8849   4.188   3.605   0.323
 2946SOL    HW1 8850   4.221   3.644   0.409
 2946SOL    HW2 8851   4.264   3.598   0.258
 2947SOL     OW 8852   3.973   3.647   1.241
 2947SOL    HW1 8853   4.030   3.582   1.291
 2947SOL    HW2 8854   3.957   3.614   1.148
 2948SOL     OW 8855   4.106   2.562   0.480
 2948SOL    HW1 8856   4.151   2.472   0.477
 2948SOL    HW2 8857   4.012   2.551   0.513
 2949SOL     OW 8858   4.505   2.126   1.749
 2949SOL    HW1 8859   4.572   2.065   1.792
 2949SOL    HW2 8860   4.432   2.145   1.814
 2950SOL     OW 8861   4.527   3.264   0.924
 2950SOL    HW1 8862   4.617   3.278   0.882
 2950SOL    HW2 8863   4.456   3.266   0.853
 2951SOL     OW 8864   4.646   2.365   0.899
 2951SOL    HW1 8865   4.621   2.356   0.803
 2951SOL    HW2 8866   4.694   2.283   0.930
 2952SOL     OW 8867   4.263   1.926   0.512
 2952SOL    HW1 8868   4.182   1.927   0.570
 2952SOL    HW2 8869   4.266   2.009   0.457
 2953SOL     OW 8870   4.021   1.897   0.171
 2953SOL    HW1 8871   4.070   1.981   0.150
 2953SOL    HW2 8872   4.083   1.832   0.216
 2954SOL     OW 8873   4.183   3.014   0.741
 2954SOL    HW1 8874   4.112   2.987   0.806
 2954SOL    HW2 8875   4.157   2.986   0.648
 2955SOL     OW 8876   3.802   2.418   1.386
 2955SOL    HW1 8877   3.894   2.417   1.345
 2955SOL    HW2 8878   3.796   2.492   1.453
 2956SOL     OW 8879   4.285   2.084   1.147
 2956SOL    HW1 8880   4.323   2.000   1.184
 2956SOL    HW2 8881   4.197   2.103   1.191
 2957SOL     OW 8882   4.212   3.247   0.174
 2957SOL    HW1 8883   4.125   3.232   0.221
 2957SOL    HW2 8884   4.195   3.273   0.079
 2958SOL     OW 8885   4.251   2.118   0.328
 2958SOL    HW1 8886   4.278   2.059   0.253
 2958SOL    HW2 8887   4.251   2.213   0.297
 2959SOL     OW 8888   4.639   1.951   1.402
 2959SOL    HW1 8889   4.664   1.931   1.307
 2959SOL    HW2 8890   4.711   2.007   1.444
 2960SOL     OW 8891   4.429   2.912   0.368
 2960SOL    HW1 8892   4.415   2.919   0.467
 2960SOL    HW2 8893   4.513   2.861   0.350
 2961SOL     OW 8894   4.134   2.675   1.251
 2961SOL    HW1 8895   4.220   2.687   1.301
 2961SOL    HW2 8896   4.092   2.588   1.278
 2962SOL     OW 8897   3.788   3.426   1.331
 2962SOL    HW1 8898   3.742   3.508   1.297
 2962SOL    HW2 8899   3.886   3.445   1.340
 2963SOL     OW 8900   4.091   2.962   0.501
 2963SOL    HW1 8901   4.084   3.045   0.445
 2963SOL    HW2 8902   4.095   2.882   0.441
 2964SOL     OW 8903   4.290   2.399   0.865
 2964SOL    HW1 8904   4.302   2.465   0.791
 2964SOL    HW2 8905   4.336   2.433   0.948
 2965SOL     OW 8906   4.078   3.372   1.329
 2965SOL    HW1 8907   4.057   3.328   1.242
 2965SOL    HW2 8908   4.175   3.398   1.332
 2966SOL     OW 8909   4.126   2.613   1.598
 2966SOL    HW1 8910   4.194   2.668   1.551
 2966SOL    HW2 8911   4.166   2.525   1.625
 2967SOL     OW 8912   4.228   1.912   1.740
 2967SOL    HW1 8913   4.186   1.855   1.670
 2967SOL    HW2 8914   4.162   1.981   1.772
 2968SOL     OW 8915   4.297   2.732   1.029
 2968SOL    HW1 8916   4.341   2.821   1.020
 2968SOL    HW2 8917   4.234   2.732   1.106
 2969SOL     OW 8918   4.031   2.075   1.231
 2969SOL    HW1 8919   4.008   2.112   1.321
 2969SOL    HW2 8920   4.001   1.980   1.225
 2970SOL     OW 8921   3.761   3.172   1.282
 2970SOL    HW1 8922   3.814   3.123   1.350
 2970SOL    HW2 8923   3.783   3.270   1.287
 2971SOL     OW 8924   4.456   2.496   1.064
 2971SOL    HW1 8925   4.515   2.470   0.988
 2971SOL    HW2 8926   4.428   2.592   1.053
 2972SOL     OW 8927   4.031   1.925   0.618
 2972SOL    HW1 8928   4.020   2.019   0.651
 2972SOL    HW2 8929   4.026   1.862   0.695
 2973SOL     OW 8930   4.747   2.628   0.966
 2973SOL    HW1 8931   4.762   2.649   1.062
 2973SOL    HW2 8932   4.717   2.533   0.957
 2974SOL     OW 8933   4.704   3.435   1.700
 2974SOL    HW1 8934   4.684   3.479   1.612
 2974SOL    HW2 8935   4.743   3.344   1.684
 2975SOL     OW 8936   4.074   2.760   1.804
 2975SOL    HW1 8937   4.150   2.804   1.852
 2975SOL    HW2 8938   4.109   2.713   1.722
 2976SOL     OW 8939   4.043   2.672   0.949
 2976SOL    HW1 8940   4.136   2.708   0.954
 2976SOL    HW2 8941   4.037   2.587   1.001
 2977SOL     OW 8942   4.063   2.371   1.006
 2977SOL    HW1 8943   4.011   2.288   0.989
 2977SOL    HW2 8944   4.140   2.376   0.942
 2978SOL     OW 8945   3.732   3.188   0.200
 2978SOL    HW1 8946   3.639   3.209   0.169
 2978SOL    HW2 8947   3.742   3.089   0.213
 2979SOL     OW 8948   3.812   3.663   0.927
 2979SOL    HW1 8949   3.770   3.577   0.900
 2979SOL    HW2 8950   3.906   3.666   0.893
 2980SOL     OW 8951   4.228   3.430   0.910
 2980SOL    HW1 8952   4.294   3.504   0.919
 2980SOL    HW2 8953   4.272   3.351   0.868
 2981SOL     OW 8954   3.764   2.406   1.114
 2981SOL    HW1 8955   3.849   2.373   1.073
 2981SOL    HW2 8956   3.777   2.421   1.212
 2982SOL     OW 8957   3.913   2.382   1.722
 2982SOL    HW1 8958   3.972   2.342   1.652
 2982SOL    HW2 8959   3.855   2.453   1.681
 2983SOL     OW 8960   4.539   2.434   0.325
 2983SOL    HW1 8961   4.546   2.345   0.279
 2983SOL    HW2 8962   4.445   2.468   0.317
 2984SOL     OW 8963   3.976   3.426   1.744
 2984SOL    HW1 8964   3.946   3.483   1.820
 2984SOL    HW2 8965   3.969   3.329   1.770
 2985SOL     OW 8966   4.395   2.326   1.269
 2985SOL    HW1 8967   4.361   2.237   1.239
 2985SOL    HW2 8968   4.421   2.380   1.189
 2986SOL     OW 8969   4.197   2.362   0.191
 2986SOL    HW1 8970   4.258   2.442   0.195
 2986SOL    HW2 8971   4.102   2.393   0.198
 2987SOL     OW 8972   3.883   2.999   1.466
 2987SOL    HW1 8973   3.905   2.938   1.542
 2987SOL    HW2 8974   3.893   2.950   1.380
 2988SOL     OW 8975   3.807   3.120   1.022
 2988SOL    HW1 8976   3.802   3.119   1.122
 2988SOL    HW2 8977   3.724   3.079   0.984
 2989SOL     OW 8978   4.412   3.524   1.716
 2989SOL    HW1 8979   4.356   3.605   1.725
 2989SOL    HW2 8980   4.464   3.528   1.630
 2990SOL     OW 8981   4.627   1.948   0.133
 2990SOL    HW1 8982   4.678   1.949   0.047
 2990SOL    HW2 8983   4.683   1.906   0.204
 2991SOL     OW 8984   3.854   3.656   1.851
 2991SOL    HW1 8985   3.813   3.582   1.904
 2991SOL    HW2 8986   3.918   3.707   1.909
 2992SOL     OW 8987   4.554   3.135   1.422
 2992SOL    HW1 8988   4.549   3.168   1.517
 2992SOL    HW2 8989   4.468   3.154   1.376
 2993SOL     OW 8990   4.396   3.478   0.154
 2993SOL    HW1 8991   4.405   3.488   0.055
 2993SOL    HW2 8992   4.356   3.389   0.175
 2994SOL     OW 8993   3.987   2.188   0.720
 2994SOL    HW1 8994   3.908   2.239   0.686
 2994SOL    HW2 8995   3.978   2.173   0.818
 2995SOL     OW 8996   4.918   3.474   0.031
 2995SOL    HW1 8997   4.924   3.381   0.068
 2995SOL    HW2 8998   4.859   3.474  -0.049
 2996SOL     OW 8999   4.546   2.864   1.372
 2996SOL    HW1 9000   4.586   2.863   1.280
 2996SOL    HW2 9001   4.556   2.956   1.412
 2997SOL     OW 9002   4.096   3.150   1.490
 2997SOL    HW1 9003   4.083   3.243   1.456
 2997SOL    HW2 9004   4.012   3.098   1.477
 2998SOL     OW 9005   4.314   3.349   0.491
 2998SOL    HW1 9006   4.356   3.291   0.421
 2998SOL    HW2 9007   4.270   3.428   0.447
 2999SOL     OW 9008   3.979   3.210   0.290
 2999SOL    HW1 9009   3.883   3.211   0.263
 2999SOL    HW2 9010   3.991   3.263   0.374
 3000SOL     OW 9011   3.829   2.875   1.726
 3000SOL    HW1 9012   3.752   2.842   1.780
 3000SOL    HW2 9013   3.914   2.845   1.768
 3001SOL     OW 9014   4.396   2.065   1.489
 3001SOL    HW1 9015   4.486   2.049   1.449
 3001SOL    HW2 9016   4.404   2.070   1.588
 3002SOL     OW 9017   3.796   2.028   0.318
 3002SOL    HW1 9018   3.779   2.111   0.264
 3002SOL    HW2 9019   3.886   1.991   0.296
 3003SOL     OW 9020   4.337   2.704   1.431
 3003SOL    HW1 9021   4.393   2.785   1.414
 3003SOL    HW2 9022   4.396   2.624   1.434
 3004SOL     OW 9023   4.440   2.427   1.708
 3004SOL    HW1 9024   4.459   2.492   1.782
 3004SOL    HW2 9025   4.500   2.347   1.717
 3005SOL     OW 9026   4.114   3.603   1.560
 3005SOL    HW1 9027   4.023   3.644   1.558
 3005SOL    HW2 9028   4.107   3.509   1.592
 3006SOL     OW 9029   4.318   2.607   0.652
 3006SOL    HW1 9030   4.368   2.692   0.633
 3006SOL    HW2 9031   4.230   2.609   0.604
 3007SOL     OW 9032   4.385   3.652   0.953
 3007SOL    HW1 9033   4.339   3.740   0.940
 3007SOL    HW2 9034   4.484   3.664   0.946
 3008SOL     OW 9035   4.583   2.818   0.861
 3008SOL    HW1 9036   4.637   2.749   0.909
 3008SOL    HW2 9037   4.551   2.887   0.927
 3009SOL     OW 9038   3.945   3.176   1.844
 3009SOL    HW1 9039   3.880   3.103   1.823
 3009SOL    HW2 9040   3.949   3.190   1.942
 3010SOL     OW 9041   3.803   3.102   0.653
 3010SOL    HW1 9042   3.802   3.055   0.741
 3010SOL    HW2 9043   3.885   3.074   0.602
 3011SOL     OW 9044   4.396   3.253   1.624
 3011SOL    HW1 9045   4.318   3.203   1.662
 3011SOL    HW2 9046   4.393   3.348   1.655
 3012SOL     OW 9047   4.152   2.286   0.520
 3012SOL    HW1 9048   4.182   2.214   0.458
 3012SOL    HW2 9049   4.113   2.246   0.603
 3013SOL     OW 9050   4.041   2.409   1.280
 3013SOL    HW1 9051   4.079   2.350   1.352
 3013SOL    HW2 9052   4.081   2.383   1.192
 3014SOL     OW 9053   4.536   3.448   0.687
 3014SOL    HW1 9054   4.568   3.458   0.593
 3014SOL    HW2 9055   4.457   3.386   0.689
 3015SOL     OW 9056   4.725   1.896   1.154
 3015SOL    HW1 9057   4.662   1.824   1.123
 3015SOL    HW2 9058   4.818   1.860   1.154
 3016SOL     OW 9059   4.494   3.192   0.301
 3016SOL    HW1 9060   4.448   3.105   0.318
 3016SOL    HW2 9061   4.585   3.189   0.342
 3017SOL     OW 9062   4.342   3.429   1.284
 3017SOL    HW1 9063   4.337   3.511   1.341
 3017SOL    HW2 9064   4.431   3.426   1.239
 3018SOL     OW 9065   3.763   2.939   0.300
 3018SOL    HW1 9066   3.862   2.928   0.291
 3018SOL    HW2 9067   3.723   2.853   0.332
 3019SOL     OW 9068   4.599   3.508   0.337
 3019SOL    HW1 9069   4.522   3.473   0.283
 3019SOL    HW2 9070   4.567   3.579   0.399
 3020SOL     OW 9071   3.954   2.490   1.975
 3020SOL    HW1 9072   3.861   2.488   2.012
 3020SOL    HW2 9073   3.955   2.451   1.883
 3021SOL     OW 9074   3.949   2.137   2.858
 3021SOL    HW1 9075   3.984   2.120   2.950
 3021SOL    HW2 9076   3.861   2.092   2.846
 3022SOL     OW 9077   3.743   2.230   2.509
 3022SOL    HW1 9078   3.661   2.273   2.548
 3022SOL    HW2 9079   3.715   2.157   2.446
 3023SOL     OW 9080   4.293   3.137   3.027
 3023SOL    HW1 9081   4.200   3.130   2.990
 3023SOL    HW2 9082   4.304   3.226   3.071
 3024SOL     OW 9083   4.492   3.006   2.885
 3024SOL    HW1 9084   4.414   3.023   2.945
 3024SOL    HW2 9085   4.526   3.093   2.849
 3025SOL     OW 9086   4.574   2.660   3.685
 3025SOL    HW1 9087   4.570   2.736   3.750
 3025SOL    HW2 9088   4.596   2.696   3.594
 3026SOL     OW 9089   4.409   2.874   2.527
 3026SOL    HW1 9090   4.478   2.858   2.597
 3026SOL    HW2 9091   4.336   2.931   2.565
 3027SOL     OW 9092   4.410   3.023   3.665
 3027SOL    HW1 9093   4.470   3.102   3.679
 3027SOL    HW2 9094   4.324   3.054   3.624
 3028SOL     OW 9095   4.059   3.297   2.923
 3028SOL    HW1 9096   3.981   3.266   2.870
 3028SOL    HW2 9097   4.117   3.355   2.866
 3029SOL     OW 9098   4.162   2.254   3.361
 3029SOL    HW1 9099   4.244   2.198   3.370
 3029SOL    HW2 9100   4.081   2.196   3.365
 3030SOL     OW 9101   3.955   3.575   2.345
 3030SOL    HW1 9102   3.989   3.652   2.399
 3030SOL    HW2 9103   3.999   3.575   2.255
 3031SOL     OW 9104   3.954   3.296   2.400
 3031SOL    HW1 9105   3.928   3.392   2.400
 3031SOL    HW2 9106   3.883   3.242   2.445
 3032SOL     OW 9107   3.964   2.953   2.748
 3032SOL    HW1 9108   3.978   2.869   2.800
 3032SOL    HW2 9109   3.909   3.017   2.803
 3033SOL     OW 9110   4.344   3.648   3.301
 3033SOL    HW1 9111   4.252   3.631   3.336
 3033SOL    HW2 9112   4.372   3.740   3.327
 3034SOL     OW 9113   4.330   2.826   1.985
 3034SOL    HW1 9114   4.337   2.910   1.931
 3034SOL    HW2 9115   4.376   2.839   2.073
 3035SOL     OW 9116   3.846   2.505   2.425
 3035SOL    HW1 9117   3.801   2.417   2.442
 3035SOL    HW2 9118   3.845   2.559   2.509
 3036SOL     OW 9119   3.751   3.458   1.979
 3036SOL    HW1 9120   3.732   3.362   2.000
 3036SOL    HW2 9121   3.718   3.516   2.054
 3037SOL     OW 9122   3.837   2.599   3.459
 3037SOL    HW1 9123   3.925   2.586   3.504
 3037SOL    HW2 9124   3.824   2.696   3.437
 3038SOL     OW 9125   4.337   3.227   2.588
 3038SOL    HW1 9126   4.288   3.140   2.597
 3038SOL    HW2 9127   4.314   3.270   2.501
 3039SOL     OW 9128   4.533   1.866   2.364
 3039SOL    HW1 9129   4.573   1.957   2.355
 3039SOL    HW2 9130   4.433   1.874   2.370
 3040SOL     OW 9131   3.921   2.838   3.126
 3040SOL    HW1 9132   4.010   2.793   3.112
 3040SOL    HW2 9133   3.848   2.773   3.107
 3041SOL     OW 9134   4.041   2.113   3.663
 3041SOL    HW1 9135   4.112   2.184   3.669
 3041SOL    HW2 9136   3.953   2.152   3.691
 3042SOL     OW 9137   4.322   2.591   2.132
 3042SOL    HW1 9138   4.346   2.660   2.064
 3042SOL    HW2 9139   4.244   2.624   2.186
 3043SOL     OW 9140   4.531   2.467   3.327
 3043SOL    HW1 9141   4.484   2.464   3.416
 3043SOL    HW2 9142   4.480   2.412   3.261
 3044SOL     OW 9143   3.800   2.673   2.651
 3044SOL    HW1 9144   3.899   2.661   2.660
 3044SOL    HW2 9145   3.776   2.768   2.672
 3045SOL     OW 9146   3.854   3.683   3.433
 3045SOL    HW1 9147   3.844   3.668   3.532
 3045SOL    HW2 9148   3.768   3.719   3.397
 3046SOL     OW 9149   4.589   2.210   2.057
 3046SOL    HW1 9150   4.648   2.273   2.008
 3046SOL    HW2 9151   4.608   2.116   2.028
 3047SOL     OW 9152   4.274   2.058   2.747
 3047SOL    HW1 9153   4.269   2.053   2.847
 3047SOL    HW2 9154   4.276   2.154   2.718
 3048SOL     OW 9155   4.732   3.318   2.339
 3048SOL    HW1 9156   4.686   3.390   2.287
 3048SOL    HW2 9157   4.728   3.338   2.437
 3049SOL     OW 9158   4.075   3.663   2.715
 3049SOL    HW1 9159   4.125   3.577   2.721
 3049SOL    HW2 9160   4.140   3.740   2.712
 3050SOL     OW 9161   4.045   2.805   2.104
 3050SOL    HW1 9162   4.127   2.844   2.062
 3050SOL    HW2 9163   4.018   2.723   2.055
 3051SOL     OW 9164   4.185   3.128   3.589
 3051SOL    HW1 9165   4.135   3.129   3.503
 3051SOL    HW2 9166   4.122   3.110   3.665
 3052SOL     OW 9167   4.835   3.638   2.099
 3052SOL    HW1 9168   4.775   3.576   2.149
 3052SOL    HW2 9169   4.866   3.594   2.014
 3053SOL     OW 9170   3.926   2.147   3.360
 3053SOL    HW1 9171   3.846   2.207   3.347
 3053SOL    HW2 9172   3.916   2.098   3.446
 3054SOL     OW 9173   4.188   3.605   2.185
 3054SOL    HW1 9174   4.221   3.644   2.271
 3054SOL    HW2 9175   4.264   3.598   2.120
 3055SOL     OW 9176   3.973   3.647   3.103
 3055SOL    HW1 9177   4.030   3.582   3.153
 3055SOL    HW2 9178   3.957   3.614   3.010
 3056SOL     OW 9179   4.106   2.562   2.342
 3056SOL    HW1 9180   4.151   2.472   2.339
 3056SOL    HW2 9181   4.012   2.551   2.375
 3057SOL     OW 9182   4.338   1.984   1.979
 3057SOL    HW1 9183   4.436   1.962   1.986
 3057SOL    HW2 9184   4.307   1.967   1.886
 3058SOL     OW 9185   4.505   2.126   3.611
 3058SOL    HW1 9186   4.572   2.065   3.654
 3058SOL    HW2 9187   4.432   2.145   3.676
 3059SOL     OW 9188   4.527   3.264   2.786
 3059SOL    HW1 9189   4.617   3.278   2.744
 3059SOL    HW2 9190   4.456   3.266   2.715
 3060SOL     OW 9191   4.646   2.365   2.761
 3060SOL    HW1 9192   4.621   2.356   2.665
 3060SOL    HW2 9193   4.694   2.283   2.792
 3061SOL     OW 9194   4.263   1.926   2.374
 3061SOL    HW1 9195   4.182   1.927   2.432
 3061SOL    HW2 9196   4.266   2.009   2.319
 3062SOL     OW 9197   4.021   1.897   2.033
 3062SOL    HW1 9198   4.070   1.981   2.012
 3062SOL    HW2 9199   4.083   1.832   2.078
 3063SOL     OW 9200   4.183   3.014   2.603
 3063SOL    HW1 9201   4.112   2.987   2.668
 3063SOL    HW2 9202   4.157   2.986   2.510
 3064SOL     OW 9203   3.802   2.418   3.248
 3064SOL    HW1 9204   3.894   2.417   3.207
 3064SOL    HW2 9205   3.796   2.492   3.315
 3065SOL     OW 9206   4.285   2.084   3.009
 3065SOL    HW1 9207   4.323   2.000   3.046
 3065SOL    HW2 9208   4.197   2.103   3.053
 3066SOL     OW 9209   4.212   3.247   2.036
 3066SOL    HW1 9210   4.125   3.232   2.083
 3066SOL    HW2 9211   4.195   3.273   1.941
 3067SOL     OW 9212   4.251   2.118   2.190
 3067SOL    HW1 9213   4.278   2.059   2.115
 3067SOL    HW2 9214   4.251   2.213   2.159
 3068SOL     OW 9215   4.639   1.951   3.264
 3068SOL    HW1 9216   4.664   1.931   3.169
 3068SOL    HW2 9217   4.711   2.007   3.306
 3069SOL     OW 9218   4.429   2.912   2.230
 3069SOL    HW1 9219   4.415   2.919   2.329
 3069SOL    HW2 9220   4.513   2.861   2.212
 3070SOL     OW 9221   4.134   2.675   3.113
 3070SOL    HW1 9222   4.220   2.687   3.163
 3070SOL    HW2 9223   4.092   2.588   3.140
 3071SOL     OW 9224   3.788   3.426   3.193
 3071SOL    HW1 9225   3.742   3.508   3.159
 3071SOL    HW2 9226   3.886   3.445   3.202
 3072SOL     OW 9227   4.091   2.962   2.363
 3072SOL    HW1 9228   4.084   3.045   2.307
 3072SOL    HW2 9229   4.095   2.882   2.303
 3073SOL     OW 9230   4.290   2.399   2.727
 3073SOL    HW1 9231   4.302   2.465   2.653
 3073SOL    HW2 9232   4.336   2.433   2.810
 3074SOL     OW 9233   4.078   3.372   3.191
 3074SOL    HW1 9234   4.057   3.328   3.104
 3074SOL    HW2 9235   4.175   3.398   3.194
 3075SOL     OW 9236   4.126   2.613   3.460
 3075SOL    HW1 9237   4.194   2.668   3.413
 3075SOL    HW2 9238   4.166   2.525   3.487
 3076SOL     OW 9239   4.228   1.912   3.602
 3076SOL    HW1 9240   4.186   1.855   3.532
 3076SOL    HW2 9241   4.162   1.981   3.634
 3077SOL     OW 9242   4.297   2.732   2.891
 3077SOL    HW1 9243   4.341   2.821   2.882
 3077SOL    HW2 9244   4.234   2.732   2.968
 3078SOL     OW 9245   4.031   2.075   3.093
 3078SOL    HW1 9246   4.008   2.112   3.183
 3078SOL    HW2 9247   4.001   1.980   3.087
 3079SOL     OW 9248   3.761   3.172   3.144
 3079SOL    HW1 9249   3.814   3.123   3.212
 3079SOL    HW2 9250   3.783   3.270   3.149
 3080SOL     OW 9251   4.456   2.496   2.926
 3080SOL    HW1 9252   4.515   2.470   2.850
 3080SOL    HW2 9253   4.428   2.592   2.915
 3081SOL     OW 9254   4.031   1.925   2.480
 3081SOL    HW1 9255   4.020   2.019   2.513
 3081SOL    HW2 9256   4.026   1.862   2.557
 3082SOL     OW 9257   4.747   2.628   2.828
 3082SOL    HW1 9258   4.762   2.649   2.924
 3082SOL    HW2 9259   4.717   2.533   2.819
 3083SOL     OW 9260   4.704   3.435   3.562
 3083SOL    HW1 9261   4.684   3.479   3.474
 3083SOL    HW2 9262   4.743   3.344   3.546
 3084SOL     OW 9263   4.074   2.760   3.666
 3084SOL    HW1 9264   4.150   2.804   3.714
 3084SOL    HW2 9265   4.109   2.713   3.584
 3085SOL     OW 9266   4.043   2.672   2.811
 3085SOL    HW1 9267   4.136   2.708   2.816
 3085SOL    HW2 9268   4.037   2.587   2.863
 3086SOL     OW 9269   4.063   2.371   2.868
 3086SOL    HW1 9270   4.011   2.288   2.851
 3086SOL    HW2 9271   4.140   2.376   2.804
 3087SOL     OW 9272   3.732   3.188   2.062
 3087SOL    HW1 9273   3.639   3.209   2.031
 3087SOL    HW2 9274   3.742   3.089   2.075
 3088SOL     OW 9275   3.812   3.663   2.789
 3088SOL    HW1 9276   3.770   3.577   2.762
 3088SOL    HW2 9277   3.906   3.666   2.755
 3089SOL     OW 9278   4.228   3.430   2.772
 3089SOL    HW1 9279   4.294   3.504   2.781
 3089SOL    HW2 9280   4.272   3.351   2.730
 3090SOL     OW 9281   3.764   2.406   2.976
 3090SOL    HW1 9282   3.849   2.373   2.935
 3090SOL    HW2 9283   3.777   2.421   3.074
 3091SOL     OW 9284   3.913   2.382   3.584
 3091SOL    HW1 9285   3.972   2.342   3.514
 3091SOL    HW2 9286   3.855   2.453   3.543
 3092SOL     OW 9287   4.539   2.434   2.187
 3092SOL    HW1 9288   4.546   2.345   2.141
 3092SOL    HW2 9289   4.445   2.468   2.179
 3093SOL     OW 9290   3.976   3.426   3.606
 3093SOL    HW1 9291   3.946   3.483   3.682
 3093SOL    HW2 9292   3.969   3.329   3.632
 3094SOL     OW 9293   4.395   2.326   3.131
 3094SOL    HW1 9294   4.361   2.237   3.101
 3094SOL    HW2 9295   4.421   2.380   3.051
 3095SOL     OW 9296   4.197   2.362   2.053
 3095SOL    HW1 9297   4.258   2.442   2.057
 3095SOL    HW2 9298   4.102   2.393   2.060
 3096SOL     OW 9299   3.883   2.999   3.328
 3096SOL    HW1 9300   3.905   2.938   3.404
 3096SOL    HW2 9301   3.893   2.950   3.242
 3097SOL     OW 9302   3.807   3.120   2.884
 3097SOL    HW1 9303   3.802   3.119   2.984
 3097SOL    HW2 9304   3.724   3.079   2.846
 3098SOL     OW 9305   4.412   3.524   3.578
 3098SOL    HW1 9306   4.356   3.605   3.587
 3098SOL    HW2 9307   4.464   3.528   3.492
 3099SOL     OW 9308   4.627   1.948   1.995
 3099SOL    HW1 9309   4.678   1.949   1.909
 3099SOL    HW2 9310   4.683   1.906   2.066
 3100SOL     OW 9311   3.854   3.656   3.713
 3100SOL    HW1 9312   3.813   3.582   3.766
 3100SOL    HW2 9313   3.918   3.707   3.771
 3101SOL     OW 9314   4.554   3.135   3.284
 3101SOL    HW1 9315   4.549   3.168   3.379
 3101SOL    HW2 9316   4.468   3.154   3.238
 3102SOL     OW 9317   4.396   3.478   2.016
 3102SOL    HW1 9318   4.405   3.488   1.917
 3102SOL    HW2 9319   4.356   3.389   2.037
 3103SOL     OW 9320   3.987   2.188   2.582
 3103SOL    HW1 9321   3.908   2.239   2.548
 3103SOL    HW2 9322   3.978   2.173   2.680
 3104SOL     OW 9323   4.546   2.864   3.234
 3104SOL    HW1 9324   4.586   2.863   3.142
 3104SOL    HW2 9325   4.556   2.956   3.274
 3105SOL     OW 9326   4.096   3.150   3.352
 3105SOL    HW1 9327   4.083   3.243   3.318
 3105SOL    HW2 9328   4.012   3.098   3.339
 3106SOL     OW 9329   4.314   3.349   2.353
 3106SOL    HW1 9330   4.356   3.291   2.283
 3106SOL    HW2 9331   4.270   3.428   2.309
 3107SOL     OW 9332   3.979   3.210   2.152
 3107SOL    HW1 9333   3.883   3.211   2.125
 3107SOL    HW2 9334   3.991   3.263   2.236
 3108SOL     OW 9335   3.829   2.875   3.588
 3108SOL    HW1 9336   3.752   2.842   3.642
 3108SOL    HW2 9337   3.914   2.845   3.630
 3109SOL     OW 9338   4.396   2.065   3.351
 3109SOL    HW1 9339   4.486   2.049   3.311
 3109SOL    HW2 9340   4.404   2.070   3.450
 3110SOL     OW 9341   3.799   2.207   1.895
 3110SOL    HW1 9342   3.707   2.179   1.866
 3110SOL    HW2 9343   3.830   2.284   1.839
 3111SOL     OW 9344   3.796   2.028   2.180
 3111SOL    HW1 9345   3.779   2.111   2.126
 3111SOL    HW2 9346   3.886   1.991   2.158
 3112SOL     OW 9347   4.337   2.704   3.293
 3112SOL    HW1 9348   4.393   2.785   3.276
 3112SOL    HW2 9349   4.396   2.624   3.296
 3113SOL     OW 9350   4.440   2.427   3.570
 3113SOL    HW1 9351   4.459   2.492   3.644
 3113SOL    HW2 9352   4.500   2.347   3.579
 3114SOL     OW 9353   4.114   3.603   3.422
 3114SOL    HW1 9354   4.023   3.644   3.420
 3114SOL    HW2 9355   4.107   3.509   3.454
 3115SOL     OW 9356   4.318   2.607   2.514
 3115SOL    HW1 9357   4.368   2.692   2.495
 3115SOL    HW2 9358   4.230   2.609   2.466
 3116SOL     OW 9359   4.385   3.652   2.815
 3116SOL    HW1 9360   4.339   3.740   2.802
 3116SOL    HW2 9361   4.484   3.664   2.808
 3117SOL     OW 9362   4.583   2.818   2.723
 3117SOL    HW1 9363   4.637   2.749   2.771
 3117SOL    HW2 9364   4.551   2.887   2.789
 3118SOL     OW 9365   3.945   3.176   3.706
 3118SOL    HW1 9366   3.880   3.103   3.685
 3118SOL    HW2 9367   3.949   3.190   3.804
 3119SOL     OW 9368   3.803   3.102   2.515
 3119SOL    HW1 9369   3.802   3.055   2.603
 3119SOL    HW2 9370   3.885   3.074   2.464
 3120SOL     OW 9371   4.396   3.253   3.486
 3120SOL    HW1 9372   4.318   3.203   3.524
 3120SOL    HW2 9373   4.393   3.348   3.517
 3121SOL     OW 9374   4.152   2.286   2.382
 3121SOL    HW1 9375   4.182   2.214   2.320
 3121SOL    HW2 9376   4.113   2.246   2.465
 3122SOL     OW 9377   4.041   2.409   3.142
 3122SOL    HW1 9378   4.079   2.350   3.214
 3122SOL    HW2 9379   4.081   2.383   3.054
 3123SOL     OW 9380   4.536   3.448   2.549
 3123SOL    HW1 9381   4.568   3.458   2.455
 3123SOL    HW2 9382   4.457   3.386   2.551
 3124SOL     OW 9383   4.725   1.896   3.016
 3124SOL    HW1 9384   4.662   1.824   2.985
 3124SOL    HW2 9385   4.818   1.860   3.016
 3125SOL     OW 9386   4.494   3.192   2.163
 3125SOL    HW1 9387   4.448   3.105   2.180
 3125SOL    HW2 9388   4.585   3.189   2.204
 3126SOL     OW 9389   4.342   3.429   3.146
 3126SOL    HW1 9390   4.337   3.511   3.203
 3126SOL    HW2 9391   4.431   3.426   3.101
 3127SOL     OW 9392   3.763   2.939   2.162
 3127SOL    HW1 9393   3.862   2.928   2.153
 3127SOL    HW2 9394   3.723   2.853   2.194
 3128SOL     OW 9395   4.599   3.508   2.199
 3128SOL    HW1 9396   4.522   3.473   2.145
 3128SOL    HW2 9397   4.567   3.579   2.261
 3129SOL     OW 9398   3.954   2.490   3.837
 3129SOL    HW1 9399   3.861   2.488   3.874
 3129SOL    HW2 9400   3.955   2.451   3.745
 3130SOL     OW 9401   3.949   2.137   4.720
 3130SOL    HW1 9402   3.984   2.120   4.812
 3130SOL    HW2 9403   3.861   2.092   4.708
 3131SOL     OW 9404   3.743   2.230   4.371
 3131SOL    HW1 9405   3.661   2.273   4.410
 3131SOL    HW2 9406   3.715   2.157   4.308
 3132SOL     OW 9407   4.492   3.006   4.747
 3132SOL    HW1 9408   4.414   3.023   4.807
 3132SOL    HW2 9409   4.526   3.093   4.711
 3133SOL     OW 9410   4.409   2.874   4.389
 3133SOL    HW1 9411   4.478   2.858   4.459
 3133SOL    HW2 9412   4.336   2.931   4.427
 3134SOL     OW 9413   3.955   3.575   4.207
 3134SOL    HW1 9414   3.989   3.652   4.261
 3134SOL    HW2 9415   3.999   3.575   4.117
 3135SOL     OW 9416   3.954   3.296   4.262
 3135SOL    HW1 9417   3.928   3.392   4.262
 3135SOL    HW2 9418   3.883   3.242   4.307
 3136SOL     OW 9419   3.964   2.953   4.610
 3136SOL    HW1 9420   3.978   2.869   4.662
 3136SOL    HW2 9421   3.909   3.017   4.665
 3137SOL     OW 9422   4.330   2.826   3.847
 3137SOL    HW1 9423   4.337   2.910   3.793
 3137SOL    HW2 9424   4.376   2.839   3.935
 3138SOL     OW 9425   3.846   2.505   4.287
 3138SOL    HW1 9426   3.801   2.417   4.304
 3138SOL    HW2 9427   3.845   2.559   4.371
 3139SOL     OW 9428   3.751   3.458   3.841
 3139SOL    HW1 9429   3.732   3.362   3.862
 3139SOL    HW2 9430   3.718   3.516   3.916
 3140SOL     OW 9431   4.337   3.227   4.450
 3140SOL    HW1 9432   4.288   3.140   4.459
 3140SOL    HW2 9433   4.314   3.270   4.363
 3141SOL     OW 9434   4.533   1.866   4.226
 3141SOL    HW1 9435   4.573   1.957   4.217
 3141SOL    HW2 9436   4.433   1.874   4.232
 3142SOL     OW 9437   4.322   2.591   3.994
 3142SOL    HW1 9438   4.346   2.660   3.926
 3142SOL    HW2 9439   4.244   2.624   4.048
 3143SOL     OW 9440   3.800   2.673   4.513
 3143SOL    HW1 9441   3.899   2.661   4.522
 3143SOL    HW2 9442   3.776   2.768   4.534
 3144SOL     OW 9443   4.589   2.210   3.919
 3144SOL    HW1 9444   4.648   2.273   3.870
 3144SOL    HW2 9445   4.608   2.116   3.890
 3145SOL     OW 9446   4.274   2.058   4.609
 3145SOL    HW1 9447   4.269   2.053   4.709
 3145SOL    HW2 9448   4.276   2.154   4.580
 3146SOL     OW 9449   4.732   3.318   4.201
 3146SOL    HW1 9450   4.686   3.390   4.149
 3146SOL    HW2 9451   4.728   3.338   4.299
 3147SOL     OW 9452   4.075   3.663   4.577
 3147SOL    HW1 9453   4.125   3.577   4.583
 3147SOL    HW2 9454   4.140   3.740   4.574
 3148SOL     OW 9455   4.045   2.805   3.966
 3148SOL    HW1 9456   4.127   2.844   3.924
 3148SOL    HW2 9457   4.018   2.723   3.917
 3149SOL     OW 9458   4.835   3.638   3.961
 3149SOL    HW1 9459   4.775   3.576   4.011
 3149SOL    HW2 9460   4.866   3.594   3.876
 3150SOL     OW 9461   4.188   3.605   4.047
 3150SOL    HW1 9462   4.221   3.644   4.133
 3150SOL    HW2 9463   4.264   3.598   3.982
 3151SOL     OW 9464   4.106   2.562   4.204
 3151SOL    HW1 9465   4.151   2.472   4.201
 3151SOL    HW2 9466   4.012   2.551   4.237
 3152SOL     OW 9467   4.338   1.984   3.841
 3152SOL    HW1 9468   4.436   1.962   3.848
 3152SOL    HW2 9469   4.307   1.967   3.748
 3153SOL     OW 9470   4.527   3.264   4.648
 3153SOL    HW1 9471   4.617   3.278   4.606
 3153SOL    HW2 9472   4.456   3.266   4.577
 3154SOL     OW 9473   4.263   1.926   4.236
 3154SOL    HW1 9474   4.182   1.927   4.294
 3154SOL    HW2 9475   4.266   2.009   4.181
 3155SOL     OW 9476   4.021   1.897   3.895
 3155SOL    HW1 9477   4.070   1.981   3.874
 3155SOL    HW2 9478   4.083   1.832   3.940
 3156SOL     OW 9479   4.183   3.014   4.465
 3156SOL    HW1 9480   4.112   2.987   4.530
 3156SOL    HW2 9481   4.157   2.986   4.372
 3157SOL     OW 9482   4.212   3.247   3.898
 3157SOL    HW1 9483   4.125   3.232   3.945
 3157SOL    HW2 9484   4.195   3.273   3.803
 3158SOL     OW 9485   4.251   2.118   4.052
 3158SOL    HW1 9486   4.278   2.059   3.977
 3158SOL    HW2 9487   4.251   2.213   4.021
 3159SOL     OW 9488   4.429   2.912   4.092
 3159SOL    HW1 9489   4.415   2.919   4.191
 3159SOL    HW2 9490   4.513   2.861   4.074
 3160SOL     OW 9491   4.998   2.248   4.986
 3160SOL    HW1 9492   5.019   2.322   5.050
 3160SOL    HW2 9493   4.909   2.265   4.943
 3161SOL     OW 9494   4.091   2.962   4.225
 3161SOL    HW1 9495   4.084   3.045   4.169
 3161SOL    HW2 9496   4.095   2.882   4.165
 3162SOL     OW 9497   4.290   2.399   4.589
 3162SOL    HW1 9498   4.302   2.465   4.515
 3162SOL    HW2 9499   4.336   2.433   4.672
 3163SOL     OW 9500   4.456   2.496   4.788
 3163SOL    HW1 9501   4.515   2.470   4.712
 3163SOL    HW2 9502   4.428   2.592   4.777
 3164SOL     OW 9503   4.031   1.925   4.342
 3164SOL    HW1 9504   4.020   2.019   4.375
 3164SOL    HW2 9505   4.026   1.862   4.419
 3165SOL     OW 9506   4.747   2.628   4.690
 3165SOL    HW1 9507   4.762   2.649   4.786
 3165SOL    HW2 9508   4.717   2.533   4.681
 3166SOL     OW 9509   3.732   3.188   3.924
 3166SOL    HW1 9510   3.639   3.209   3.893
 3166SOL    HW2 9511   3.742   3.089   3.937
 3167SOL     OW 9512   3.812   3.663   4.651
 3167SOL    HW1 9513   3.770   3.577   4.624
 3167SOL    HW2 9514   3.906   3.666   4.617
 3168SOL     OW 9515   4.228   3.430   4.634
 3168SOL    HW1 9516   4.294   3.504   4.643
 3168SOL    HW2 9517   4.272   3.351   4.592
 3169SOL     OW 9518   4.539   2.434   4.049
 3169SOL    HW1 9519   4.546   2.345   4.003
 3169SOL    HW2 9520   4.445   2.468   4.041
 3170SOL     OW 9521   4.197   2.362   3.915
 3170SOL    HW1 9522   4.258   2.442   3.919
 3170SOL    HW2 9523   4.102   2.393   3.922
 3171SOL     OW 9524   4.627   1.948   3.857
 3171SOL    HW1 9525   4.678   1.949   3.771
 3171SOL    HW2 9526   4.683   1.906   3.928
 3172SOL     OW 9527   4.396   3.478   3.878
 3172SOL    HW1 9528   4.405   3.488   3.779
 3172SOL    HW2 9529   4.356   3.389   3.899
 3173SOL     OW 9530   3.987   2.188   4.444
 3173SOL    HW1 9531   3.908   2.239   4.410
 3173SOL    HW2 9532   3.978   2.173   4.542
 3174SOL     OW 9533   4.314   3.349   4.215
 3174SOL    HW1 9534   4.356   3.291   4.145
 3174SOL    HW2 9535   4.270   3.428   4.171
 3175SOL     OW 9536   3.979   3.210   4.014
 3175SOL    HW1 9537   3.883   3.211   3.987
 3175SOL    HW2 9538   3.991   3.263   4.098
 3176SOL     OW 9539   3.799   2.207   3.757
 3176SOL    HW1 9540   3.707   2.179   3.728
 3176SOL    HW2 9541   3.830   2.284   3.701
 3177SOL     OW 9542   3.796   2.028   4.042
 3177SOL    HW1 9543   3.779   2.111   3.988
 3177SOL    HW2 9544   3.886   1.991   4.020
 3178SOL     OW 9545   4.318   2.607   4.376
 3178SOL    HW1 9546   4.368   2.692   4.357
 3178SOL    HW2 9547   4.230   2.609   4.328
 3179SOL     OW 9548   4.385   3.652   4.677
 3179SOL    HW1 9549   4.339   3.740   4.664
 3179SOL    HW2 9550   4.484   3.664   4.670
 3180SOL     OW 9551   4.583   2.818   4.585
 3180SOL    HW1 9552   4.637   2.749   4.633
 3180SOL    HW2 9553   4.551   2.887   4.651
 3181SOL     OW 9554   3.803   3.102   4.377
 3181SOL    HW1 9555   3.802   3.055   4.465
 3181SOL    HW2 9556   3.885   3.074   4.326
 3182SOL     OW 9557   4.152   2.286   4.244
 3182SOL    HW1 9558   4.182   2.214   4.182
 3182SOL    HW2 9559   4.113   2.246   4.327
 3183SOL     OW 9560   4.536   3.448   4.411
 3183SOL    HW1 9561   4.568   3.458   4.317
 3183SOL    HW2 9562   4.457   3.386   4.413
 3184SOL     OW 9563   4.494   3.192   4.025
 3184SOL    HW1 9564   4.448   3.105   4.042
 3184SOL    HW2 9565   4.585   3.189   4.066
 3185SOL     OW 9566   3.763   2.939   4.024
 3185SOL    HW1 9567   3.862   2.928   4.015
 3185SOL    HW2 9568   3.723   2.853   4.056
 3186SOL     OW 9569   4.599   3.508   4.061
 3186SOL    HW1 9570   4.522   3.473   4.007
 3186SOL    HW2 9571   4.567   3.579   4.123
 3187SOL     OW 9572   3.954   4.352   0.113
 3187SOL    HW1 9573   3.861   4.350   0.150
 3187SOL    HW2 9574   3.955   4.313   0.021
 3188SOL     OW 9575   3.949   3.999   0.996
 3188SOL    HW1 9576   3.984   3.982   1.088
 3188SOL    HW2 9577   3.861   3.954   0.984
 3189SOL     OW 9578   3.743   4.092   0.647
 3189SOL    HW1 9579   3.661   4.135   0.686
 3189SOL    HW2 9580   3.715   4.019   0.584
 3190SOL     OW 9581   4.574   4.522   1.823
 3190SOL    HW1 9582   4.570   4.598   1.888
 3190SOL    HW2 9583   4.596   4.558   1.732
 3191SOL     OW 9584   4.409   4.736   0.665
 3191SOL    HW1 9585   4.478   4.720   0.735
 3191SOL    HW2 9586   4.336   4.793   0.703
 3192SOL     OW 9587   4.162   4.116   1.499
 3192SOL    HW1 9588   4.244   4.060   1.508
 3192SOL    HW2 9589   4.081   4.058   1.503
 3193SOL     OW 9590   3.846   4.367   0.563
 3193SOL    HW1 9591   3.801   4.279   0.580
 3193SOL    HW2 9592   3.845   4.421   0.647
 3194SOL     OW 9593   3.837   4.461   1.597
 3194SOL    HW1 9594   3.925   4.448   1.642
 3194SOL    HW2 9595   3.824   4.558   1.575
 3195SOL     OW 9596   4.533   3.728   0.502
 3195SOL    HW1 9597   4.573   3.819   0.493
 3195SOL    HW2 9598   4.433   3.736   0.508
 3196SOL     OW 9599   4.041   3.975   1.801
 3196SOL    HW1 9600   4.112   4.046   1.807
 3196SOL    HW2 9601   3.953   4.014   1.829
 3197SOL     OW 9602   4.322   4.453   0.270
 3197SOL    HW1 9603   4.346   4.522   0.202
 3197SOL    HW2 9604   4.244   4.486   0.324
 3198SOL     OW 9605   4.531   4.329   1.465
 3198SOL    HW1 9606   4.484   4.326   1.554
 3198SOL    HW2 9607   4.480   4.274   1.399
 3199SOL     OW 9608   3.800   4.535   0.789
 3199SOL    HW1 9609   3.899   4.523   0.798
 3199SOL    HW2 9610   3.776   4.630   0.810
 3200SOL     OW 9611   4.589   4.072   0.195
 3200SOL    HW1 9612   4.648   4.135   0.146
 3200SOL    HW2 9613   4.608   3.978   0.166
 3201SOL     OW 9614   4.274   3.920   0.885
 3201SOL    HW1 9615   4.269   3.915   0.985
 3201SOL    HW2 9616   4.276   4.016   0.856
 3202SOL     OW 9617   3.926   4.009   1.498
 3202SOL    HW1 9618   3.846   4.069   1.485
 3202SOL    HW2 9619   3.916   3.960   1.584
 3203SOL     OW 9620   4.106   4.424   0.480
 3203SOL    HW1 9621   4.151   4.334   0.477
 3203SOL    HW2 9622   4.012   4.413   0.513
 3204SOL     OW 9623   4.505   3.988   1.749
 3204SOL    HW1 9624   4.572   3.927   1.792
 3204SOL    HW2 9625   4.432   4.007   1.814
 3205SOL     OW 9626   4.646   4.227   0.899
 3205SOL    HW1 9627   4.621   4.218   0.803
 3205SOL    HW2 9628   4.694   4.145   0.930
 3206SOL     OW 9629   4.263   3.788   0.512
 3206SOL    HW1 9630   4.182   3.789   0.570
 3206SOL    HW2 9631   4.266   3.871   0.457
 3207SOL     OW 9632   4.021   3.759   0.171
 3207SOL    HW1 9633   4.070   3.843   0.150
 3207SOL    HW2 9634   4.083   3.694   0.216
 3208SOL     OW 9635   3.802   4.280   1.386
 3208SOL    HW1 9636   3.894   4.279   1.345
 3208SOL    HW2 9637   3.796   4.354   1.453
 3209SOL     OW 9638   4.285   3.946   1.147
 3209SOL    HW1 9639   4.323   3.862   1.184
 3209SOL    HW2 9640   4.197   3.965   1.191
 3210SOL     OW 9641   4.251   3.980   0.328
 3210SOL    HW1 9642   4.278   3.921   0.253
 3210SOL    HW2 9643   4.251   4.075   0.297
 3211SOL     OW 9644   4.639   3.813   1.402
 3211SOL    HW1 9645   4.664   3.793   1.307
 3211SOL    HW2 9646   4.711   3.869   1.444
 3212SOL     OW 9647   4.134   4.537   1.251
 3212SOL    HW1 9648   4.220   4.549   1.301
 3212SOL    HW2 9649   4.092   4.450   1.278
 3213SOL     OW 9650   4.290   4.261   0.865
 3213SOL    HW1 9651   4.302   4.327   0.791
 3213SOL    HW2 9652   4.336   4.295   0.948
 3214SOL     OW 9653   4.126   4.475   1.598
 3214SOL    HW1 9654   4.194   4.530   1.551
 3214SOL    HW2 9655   4.166   4.387   1.625
 3215SOL     OW 9656   4.228   3.774   1.740
 3215SOL    HW1 9657   4.186   3.717   1.670
 3215SOL    HW2 9658   4.162   3.843   1.772
 3216SOL     OW 9659   4.297   4.594   1.029
 3216SOL    HW1 9660   4.341   4.683   1.020
 3216SOL    HW2 9661   4.234   4.594   1.106
 3217SOL     OW 9662   4.031   3.937   1.231
 3217SOL    HW1 9663   4.008   3.974   1.321
 3217SOL    HW2 9664   4.001   3.842   1.225
 3218SOL     OW 9665   4.456   4.358   1.064
 3218SOL    HW1 9666   4.515   4.332   0.988
 3218SOL    HW2 9667   4.428   4.454   1.053
 3219SOL     OW 9668   4.031   3.787   0.618
 3219SOL    HW1 9669   4.020   3.881   0.651
 3219SOL    HW2 9670   4.026   3.724   0.695
 3220SOL     OW 9671   4.747   4.490   0.966
 3220SOL    HW1 9672   4.762   4.511   1.062
 3220SOL    HW2 9673   4.717   4.395   0.957
 3221SOL     OW 9674   4.043   4.534   0.949
 3221SOL    HW1 9675   4.136   4.570   0.954
 3221SOL    HW2 9676   4.037   4.449   1.001
 3222SOL     OW 9677   4.063   4.233   1.006
 3222SOL    HW1 9678   4.011   4.150   0.989
 3222SOL    HW2 9679   4.140   4.238   0.942
 3223SOL     OW 9680   4.726   4.520   1.238
 3223SOL    HW1 9681   4.767   4.488   1.324
 3223SOL    HW2 9682   4.630   4.493   1.235
 3224SOL     OW 9683   3.764   4.268   1.114
 3224SOL    HW1 9684   3.849   4.235   1.073
 3224SOL    HW2 9685   3.777   4.283   1.212
 3225SOL     OW 9686   3.913   4.244   1.722
 3225SOL    HW1 9687   3.972   4.204   1.652
 3225SOL    HW2 9688   3.855   4.315   1.681
 3226SOL     OW 9689   4.539   4.296   0.325
 3226SOL    HW1 9690   4.546   4.207   0.279
 3226SOL    HW2 9691   4.445   4.330   0.317
 3227SOL     OW 9692   4.395   4.188   1.269
 3227SOL    HW1 9693   4.361   4.099   1.239
 3227SOL    HW2 9694   4.421   4.242   1.189
 3228SOL     OW 9695   4.197   4.224   0.191
 3228SOL    HW1 9696   4.258   4.304   0.195
 3228SOL    HW2 9697   4.102   4.255   0.198
 3229SOL     OW 9698   4.627   3.810   0.133
 3229SOL    HW1 9699   4.678   3.811   0.047
 3229SOL    HW2 9700   4.683   3.768   0.204
 3230SOL     OW 9701   3.987   4.050   0.720
 3230SOL    HW1 9702   3.908   4.101   0.686
 3230SOL    HW2 9703   3.978   4.035   0.818
 3231SOL     OW 9704   4.763   4.822   0.696
 3231SOL    HW1 9705   4.693   4.775   0.750
 3231SOL    HW2 9706   4.822   4.754   0.653
 3232SOL     OW 9707   3.829   4.737   1.726
 3232SOL    HW1 9708   3.752   4.704   1.780
 3232SOL    HW2 9709   3.914   4.707   1.768
 3233SOL     OW 9710   4.396   3.927   1.489
 3233SOL    HW1 9711   4.486   3.911   1.449
 3233SOL    HW2 9712   4.404   3.932   1.588
 3234SOL     OW 9713   3.796   3.890   0.318
 3234SOL    HW1 9714   3.779   3.973   0.264
 3234SOL    HW2 9715   3.886   3.853   0.296
 3235SOL     OW 9716   4.337   4.566   1.431
 3235SOL    HW1 9717   4.393   4.647   1.414
 3235SOL    HW2 9718   4.396   4.486   1.434
 3236SOL     OW 9719   4.440   4.289   1.708
 3236SOL    HW1 9720   4.459   4.354   1.782
 3236SOL    HW2 9721   4.500   4.209   1.717
 3237SOL     OW 9722   4.318   4.469   0.652
 3237SOL    HW1 9723   4.368   4.554   0.633
 3237SOL    HW2 9724   4.230   4.471   0.604
 3238SOL     OW 9725   4.583   4.680   0.861
 3238SOL    HW1 9726   4.637   4.611   0.909
 3238SOL    HW2 9727   4.551   4.749   0.927
 3239SOL     OW 9728   4.152   4.148   0.520
 3239SOL    HW1 9729   4.182   4.076   0.458
 3239SOL    HW2 9730   4.113   4.108   0.603
 3240SOL     OW 9731   4.041   4.271   1.280
 3240SOL    HW1 9732   4.079   4.212   1.352
 3240SOL    HW2 9733   4.081   4.245   1.192
 3241SOL     OW 9734   4.725   3.758   1.154
 3241SOL    HW1 9735   4.662   3.686   1.123
 3241SOL    HW2 9736   4.818   3.722   1.154
 3242SOL     OW 9737   3.954   4.352   1.975
 3242SOL    HW1 9738   3.861   4.350   2.012
 3242SOL    HW2 9739   3.955   4.313   1.883
 3243SOL     OW 9740   3.949   3.999   2.858
 3243SOL    HW1 9741   3.984   3.982   2.950
 3243SOL    HW2 9742   3.861   3.954   2.846
 3244SOL     OW 9743   3.743   4.092   2.509
 3244SOL    HW1 9744   3.661   4.135   2.548
 3244SOL    HW2 9745   3.715   4.019   2.446
 3245SOL     OW 9746   4.574   4.522   3.685
 3245SOL    HW1 9747   4.570   4.598   3.750
 3245SOL    HW2 9748   4.596   4.558   3.594
 3246SOL     OW 9749   4.409   4.736   2.527
 3246SOL    HW1 9750   4.478   4.720   2.597
 3246SOL    HW2 9751   4.336   4.793   2.565
 3247SOL     OW 9752   4.162   4.116   3.361
 3247SOL    HW1 9753   4.244   4.060   3.370
 3247SOL    HW2 9754   4.081   4.058   3.365
 3248SOL     OW 9755   3.846   4.367   2.425
 3248SOL    HW1 9756   3.801   4.279   2.442
 3248SOL    HW2 9757   3.845   4.421   2.509
 3249SOL     OW 9758   3.837   4.461   3.459
 3249SOL    HW1 9759   3.925   4.448   3.504
 3249SOL    HW2 9760   3.824   4.558   3.437
 3250SOL     OW 9761   4.533   3.728   2.364
 3250SOL    HW1 9762   4.573   3.819   2.355
 3250SOL    HW2 9763   4.433   3.736   2.370
 3251SOL     OW 9764   4.041   3.975   3.663
 3251SOL    HW1 9765   4.112   4.046   3.669
 3251SOL    HW2 9766   3.953   4.014   3.691
 3252SOL     OW 9767   4.322   4.453   2.132
 3252SOL    HW1 9768   4.346   4.522   2.064
 3252SOL    HW2 9769   4.244   4.486   2.186
 3253SOL     OW 9770   4.531   4.329   3.327
 3253SOL    HW1 9771   4.484   4.326   3.416
 3253SOL    HW2 9772   4.480   4.274   3.261
 3254SOL     OW 9773   3.800   4.535   2.651
 3254SOL    HW1 9774   3.899   4.523   2.660
 3254SOL    HW2 9775   3.776   4.630   2.672
 3255SOL     OW 9776   4.589   4.072   2.057
 3255SOL    HW1 9777   4.648   4.135   2.008
 3255SOL    HW2 9778   4.608   3.978   2.028
 3256SOL     OW 9779   4.274   3.920   2.747
 3256SOL    HW1 9780   4.269   3.915   2.847
 3256SOL    HW2 9781   4.276   4.016   2.718
 3257SOL     OW 9782   3.926   4.009   3.360
 3257SOL    HW1 9783   3.846   4.069   3.347
 3257SOL    HW2 9784   3.916   3.960   3.446
 3258SOL     OW 9785   4.106   4.424   2.342
 3258SOL    HW1 9786   4.151   4.334   2.339
 3258SOL    HW2 9787   4.012   4.413   2.375
 3259SOL     OW 9788   4.338   3.846   1.979
 3259SOL    HW1 9789   4.436   3.824   1.986
 3259SOL    HW2 9790   4.307   3.829   1.886
 3260SOL     OW 9791   4.505   3.988   3.611
 3260SOL    HW1 9792   4.572   3.927   3.654
 3260SOL    HW2 9793   4.432   4.007   3.676
 3261SOL     OW 9794   4.646   4.227   2.761
 3261SOL    HW1 9795   4.621   4.218   2.665
 3261SOL    HW2 9796   4.694   4.145   2.792
 3262SOL     OW 9797   4.263   3.788   2.374
 3262SOL    HW1 9798   4.182   3.789   2.432
 3262SOL    HW2 9799   4.266   3.871   2.319
 3263SOL     OW 9800   4.021   3.759   2.033
 3263SOL    HW1 9801   4.070   3.843   2.012
 3263SOL    HW2 9802   4.083   3.694   2.078
 3264SOL     OW 9803   3.802   4.280   3.248
 3264SOL    HW1 9804   3.894   4.279   3.207
 3264SOL    HW2 9805   3.796   4.354   3.315
 3265SOL     OW 9806   4.285   3.946   3.009
 3265SOL    HW1 9807   4.323   3.862   3.046
 3265SOL    HW2 9808   4.197   3.965   3.053
 3266SOL     OW 9809   4.251   3.980   2.190
 3266SOL    HW1 9810   4.278   3.921   2.115
 3266SOL    HW2 9811   4.251   4.075   2.159
 3267SOL     OW 9812   4.639   3.813   3.264
 3267SOL    HW1 9813   4.664   3.793   3.169
 3267SOL    HW2 9814   4.711   3.869   3.306
 3268SOL     OW 9815   4.134   4.537   3.113
 3268SOL    HW1 9816   4.220   4.549   3.163
 3268SOL    HW2 9817   4.092   4.450   3.140
 3269SOL     OW 9818   4.290   4.261   2.727
 3269SOL    HW1 9819   4.302   4.327   2.653
 3269SOL    HW2 9820   4.336   4.295   2.810
 3270SOL     OW 9821   4.126   4.475   3.460
 3270SOL    HW1 9822   4.194   4.530   3.413
 3270SOL    HW2 9823   4.166   4.387   3.487
 3271SOL     OW 9824   4.228   3.774   3.602
 3271SOL    HW1 9825   4.186   3.717   3.532
 3271SOL    HW2 9826   4.162   3.843   3.634
 3272SOL     OW 9827   4.297   4.594   2.891
 3272SOL    HW1 9828   4.341   4.683   2.882
 3272SOL    HW2 9829   4.234   4.594   2.968
 3273SOL     OW 9830   4.031   3.937   3.093
 3273SOL    HW1 9831   4.008   3.974   3.183
 3273SOL    HW2 9832   4.001   3.842   3.087
 3274SOL     OW 9833   4.456   4.358   2.926
 3274SOL    HW1 9834   4.515   4.332   2.850
 3274SOL    HW2 9835   4.428   4.454   2.915
 3275SOL     OW 9836   4.031   3.787   2.480
 3275SOL    HW1 9837   4.020   3.881   2.513
 3275SOL    HW2 9838   4.026   3.724   2.557
 3276SOL     OW 9839   4.747   4.490   2.828
 3276SOL    HW1 9840   4.762   4.511   2.924
 3276SOL    HW2 9841   4.717   4.395   2.819
 3277SOL     OW 9842   4.043   4.534   2.811
 3277SOL    HW1 9843   4.136   4.570   2.816
 3277SOL    HW2 9844   4.037   4.449   2.863
 3278SOL     OW 9845   4.063   4.233   2.868
 3278SOL    HW1 9846   4.011   4.150   2.851
 3278SOL    HW2 9847   4.140   4.238   2.804
 3279SOL     OW 9848   4.726   4.520   3.100
 3279SOL    HW1 9849   4.767   4.488   3.186
 3279SOL    HW2 9850   4.630   4.493   3.097
 3280SOL     OW 9851   3.764   4.268   2.976
 3280SOL    HW1 9852   3.849   4.235   2.935
 3280SOL    HW2 9853   3.777   4.283   3.074
 3281SOL     OW 9854   3.913   4.244   3.584
 3281SOL    HW1 9855   3.972   4.204   3.514
 3281SOL    HW2 9856   3.855   4.315   3.543
 3282SOL     OW 9857   4.539   4.296   2.187
 3282SOL    HW1 9858   4.546   4.207   2.141
 3282SOL    HW2 9859   4.445   4.330   2.179
 3283SOL     OW 9860   4.395   4.188   3.131
 3283SOL    HW1 9861   4.361   4.099   3.101
 3283SOL    HW2 9862   4.421   4.242   3.051
 3284SOL     OW 9863   4.197   4.224   2.053
 3284SOL    HW1 9864   4.258   4.304   2.057
 3284SOL    HW2 9865   4.102   4.255   2.060
 3285SOL     OW 9866   4.627   3.810   1.995
 3285SOL    HW1 9867   4.678   3.811   1.909
 3285SOL    HW2 9868   4.683   3.768   2.066
 3286SOL     OW 9869   3.987   4.050   2.582
 3286SOL    HW1 9870   3.908   4.101   2.548
 3286SOL    HW2 9871   3.978   4.035   2.680
 3287SOL     OW 9872   4.763   4.822   2.558
 3287SOL    HW1 9873   4.693   4.775   2.612
 3287SOL    HW2 9874   4.822   4.754   2.515
 3288SOL     OW 9875   3.829   4.737   3.588
 3288SOL    HW1 9876   3.752   4.704   3.642
 3288SOL    HW2 9877   3.914   4.707   3.630
 3289SOL     OW 9878   4.396   3.927   3.351
 3289SOL    HW1 9879   4.486   3.911   3.311
 3289SOL    HW2 9880   4.404   3.932   3.450
 3290SOL     OW 9881   3.799   4.069   1.895
 3290SOL    HW1 9882   3.707   4.041   1.866
 3290SOL    HW2 9883   3.830   4.146   1.839
 3291SOL     OW 9884   3.796   3.890   2.180
 3291SOL    HW1 9885   3.779   3.973   2.126
 3291SOL    HW2 9886   3.886   3.853   2.158
 3292SOL     OW 9887   4.337   4.566   3.293
 3292SOL    HW1 9888   4.393   4.647   3.276
 3292SOL    HW2 9889   4.396   4.486   3.296
 3293SOL     OW 9890   4.440   4.289   3.570
 3293SOL    HW1 9891   4.459   4.354   3.644
 3293SOL    HW2 9892   4.500   4.209   3.579
 3294SOL     OW 9893   4.318   4.469   2.514
 3294SOL    HW1 9894   4.368   4.554   2.495
 3294SOL    HW2 9895   4.230   4.471   2.466
 3295SOL     OW 9896   4.583   4.680   2.723
 3295SOL    HW1 9897   4.637   4.611   2.771
 3295SOL    HW2 9898   4.551   4.749   2.789
 3296SOL     OW 9899   4.152   4.148   2.382
 3296SOL    HW1 9900   4.182   4.076   2.320
 3296SOL    HW2 9901   4.113   4.108   2.465
 3297SOL     OW 9902   4.041   4.271   3.142
 3297SOL    HW1 9903   4.079   4.212   3.214
 3297SOL    HW2 9904   4.081   4.245   3.054
 3298SOL     OW 9905   4.725   3.758   3.016
 3298SOL    HW1 9906   4.662   3.686   2.985
 3298SOL    HW2 9907   4.818   3.722   3.016
 3299SOL     OW 9908   3.954   4.352   3.837
 3299SOL    HW1 9909   3.861   4.350   3.874
 3299SOL    HW2 9910   3.955   4.313   3.745
 3300SOL     OW 9911   3.949   3.999   4.720
 3300SOL    HW1 9912   3.984   3.982   4.812
 3300SOL    HW2 9913   3.861   3.954   4.708
 3301SOL     OW 9914   3.743   4.092   4.371
 3301SOL    HW1 9915   3.661   4.135   4.410
 3301SOL    HW2 9916   3.715   4.019   4.308
 3302SOL     OW 9917   4.409   4.736   4.389
 3302SOL    HW1 9918   4.478   4.720   4.459
 3302SOL    HW2 9919   4.336   4.793   4.427
 3303SOL     OW 9920   3.846   4.367   4.287
 3303SOL    HW1 9921   3.801   4.279   4.304
 3303SOL    HW2 9922   3.845   4.421   4.371
 3304SOL     OW 9923   4.533   3.728   4.226
 3304SOL    HW1 9924   4.573   3.819   4.217
 3304SOL    HW2 9925   4.433   3.736   4.232
 3305SOL     OW 9926   4.322   4.453   3.994
 3305SOL    HW1 9927   4.346   4.522   3.926
 3305SOL    HW2 9928   4.244   4.486   4.048
 3306SOL     OW 9929   3.800   4.535   4.513
 3306SOL    HW1 9930   3.899   4.523   4.522
 3306SOL    HW2 9931   3.776   4.630   4.534
 3307SOL     OW 9932   4.589   4.072   3.919
 3307SOL    HW1 9933   4.648   4.135   3.870
 3307SOL    HW2 9934   4.608   3.978   3.890
 3308SOL     OW 9935   4.274   3.920   4.609
 3308SOL    HW1 9936   4.269   3.915   4.709
 3308SOL    HW2 9937   4.276   4.016   4.580
 3309SOL     OW 9938   4.106   4.424   4.204
 3309SOL    HW1 9939   4.151   4.334   4.201
 3309SOL    HW2 9940   4.012   4.413   4.237
 3310SOL     OW 9941   4.338   3.846   3.841
 3310SOL    HW1 9942   4.436   3.824   3.848
 3310SOL    HW2 9943   4.307   3.829   3.748
 3311SOL     OW 9944   4.263   3.788   4.236
 3311SOL    HW1 9945   4.182   3.789   4.294
 3311SOL    HW2 9946   4.266   3.871   4.181
 3312SOL     OW 9947   4.021   3.759   3.895
 3312SOL    HW1 9948   4.070   3.843   3.874
 3312SOL    HW2 9949   4.083   3.694   3.940
 3313SOL     OW 9950   4.251   3.980   4.052
 3313SOL    HW1 9951   4.278   3.921   3.977
 3313SOL    HW2 9952   4.251   4.075   4.021
 3314SOL     OW 9953   4.998   4.110   4.986
 3314SOL    HW1 9954   5.019   4.184   5.050
 3314SOL    HW2 9955   4.909   4.127   4.943
 3315SOL     OW 9956   4.290   4.261   4.589
 3315SOL    HW1 9957   4.302   4.327   4.515
 3315SOL    HW2 9958   4.336   4.295   4.672
 3316SOL     OW 9959   4.456   4.358   4.788
 3316SOL    HW1 9960   4.515   4.332   4.712
 3316SOL    HW2 9961   4.428   4.454   4.777
 3317SOL     OW 9962   4.031   3.787   4.342
 3317SOL    HW1 9963   4.020   3.881   4.375
 3317SOL    HW2 9964   4.026   3.724   4.419
 3318SOL     OW 9965   4.747   4.490   4.690
 3318SOL    HW1 9966   4.762   4.511   4.786
 3318SOL    HW2 9967   4.717   4.395   4.681
 3319SOL     OW 9968   4.539   4.296   4.049
 3319SOL    HW1 9969   4.546   4.207   4.003
 3319SOL    HW2 9970   4.445   4.330   4.041
 3320SOL     OW 9971   4.197   4.224   3.915
 3320SOL    HW1 9972   4.258   4.304   3.919
 3320SOL    HW2 9973   4.102   4.255   3.922
 3321SOL     OW 9974   4.627   3.810   3.857
 3321SOL    HW1 9975   4.678   3.811   3.771
 3321SOL    HW2 9976   4.683   3.768   3.928
 3322SOL     OW 9977   3.987   4.050   4.444
 3322SOL    HW1 9978   3.908   4.101   4.410
 3322SOL    HW2 9979   3.978   4.035   4.542
 3323SOL     OW 9980   4.763   4.822   4.420
 3323SOL    HW1 9981   4.693   4.775   4.474
 3323SOL    HW2 9982   4.822   4.754   4.377
 3324SOL     OW 9983   3.799   4.069   3.757
 3324SOL    HW1 9984   3.707   4.041   3.728
 3324SOL    HW2 9985   3.830   4.146   3.701
 3325SOL     OW 9986   3.796   3.890   4.042
 3325SOL    HW1 9987   3.779   3.973   3.988
 3325SOL    HW2 9988   3.886   3.853   4.020
 3326SOL     OW 9989   4.318   4.469   4.376
 3326SOL    HW1 9990   4.368   4.554   4.357
 3326SOL    HW2 9991   4.230   4.471   4.328
 3327SOL     OW 9992   4.583   4.680   4.585
 3327SOL    HW1 9993   4.637   4.611   4.633
 3327SOL    HW2 9994   4.551   4.749   4.651
 3328SOL     OW 9995   4.152   4.148   4.244
 3328SOL    HW1 9996   4.182   4.076   4.182
 3328SOL    HW2 9997   4.113   4.108   4.327
   4.68462   4.68462   4.68462
