mobley_2659552_GMX.gro created by acpype (v: 2023.10.27) on Wed May 20 23:42:01 2026
 25
    1  MOL   C1    1   0.134   0.242   0.002
    1  MOL   C2    2  -0.071   0.119   0.000
    1  MOL   C3    3   0.205   0.123   0.000
    1  MOL   C4    4   0.000   0.000   0.000
    1  MOL   C5    5  -0.005   0.241   0.003
    1  MOL   C6    6   0.139   0.000   0.000
    1  MOL   C7    7  -0.087   0.367  -0.005
    1  MOL   C8    8   0.216  -0.130   0.001
    1  MOL   C9    9  -0.122   0.598   0.049
    1  MOL  C10   10   0.019   0.465   0.198
    1  MOL   N1   11  -0.049   0.474   0.070
    1  MOL   O1   12  -0.181   0.371  -0.080
    1  MOL   H1   13   0.187   0.335   0.001
    1  MOL   H2   14  -0.179   0.117  -0.004
    1  MOL   H3   15   0.312   0.126  -0.002
    1  MOL   H4   16  -0.053  -0.094  -0.002
    1  MOL   H5   17   0.319  -0.115  -0.031
    1  MOL   H6   18   0.218  -0.173   0.101
    1  MOL   H7   19   0.171  -0.203  -0.065
    1  MOL   H8   20  -0.146   0.609  -0.056
    1  MOL   H9   21  -0.214   0.601   0.106
    1  MOL  H10   22  -0.059   0.681   0.080
    1  MOL  H11   23   0.052   0.365   0.218
    1  MOL  H12   24  -0.049   0.495   0.278
    1  MOL  H13   25   0.105   0.532   0.200
   10.66200    17.67200     7.14200
