ch3ph.xyz
    25
   1.3380000   2.4160000   0.0230000  -0.7130000   1.1850000   0.0000000
   2.0490000   1.2260000   0.0000000   0.0000000   0.0000000   0.0000000
  -0.0500000   2.4080000   0.0310000   1.3930000   0.0000000   0.0000000
  -0.8690000   3.6660000  -0.0460000   2.1630000  -1.2990000   0.0100000
  -1.2170000   5.9810000   0.4870000   0.1890000   4.6530000   1.9780000
  -0.4890000   4.7430000   0.6970000  -1.8130000   3.7150000  -0.7950000
   1.8710000   3.3500000   0.0140000  -1.7870000   1.1720000  -0.0350000
   3.1250000   1.2560000  -0.0230000  -0.5320000  -0.9360000  -0.0150000
   3.1890000  -1.1500000  -0.3060000   2.1820000  -1.7280000   1.0090000
   1.7090000  -2.0280000  -0.6520000  -1.4600000   6.0940000  -0.5570000
  -2.1420000   6.0050000   1.0600000  -0.5910000   6.8080000   0.8020000
   0.5210000   3.6480000   2.1780000  -0.4880000   4.9490000   2.7760000
   1.0490000   5.3150000   2.0000000
