%VERSION  VERSION_STAMP = V0001.000  DATE = 05/20/26  23:42:15                  
%FLAG TITLE                                                                     
%FORMAT(20a4)                                                                   
ch3ph.xyz                                                                       
%FLAG POINTERS                                                                  
%FORMAT(10I8)                                                                   
      25       7      13      12      26      16      36      26       0       0
     120       1      12      16      26       9      13      12       8       0
       0       0       0       0       0       0       0       0      25       0
       0
%FLAG ATOM_NAME                                                                 
%FORMAT(20a4)                                                                   
C1  C2  C3  C4  C5  C6  C7  C8  C9  C10 N1  O1  H1  H2  H3  H4  H5  H6  H7  H8  
H9  H10 H11 H12 H13 
%FLAG CHARGE                                                                    
%FORMAT(5E16.8)                                                                 
 -1.64000700E+00 -1.64000700E+00 -2.54201085E+00 -2.54201085E+00 -2.52561078E+00
 -1.04413779E+00  1.22945858E+01 -1.07147124E+00  1.47236184E+00  1.47236184E+00
 -8.76128184E+00 -1.09716468E+01  2.62401120E+00  2.62401120E+00  2.47823280E+00
  2.47823280E+00  8.69203710E-01  8.69203710E-01  8.69203710E-01  7.75049086E-01
  7.75049086E-01  7.75049086E-01  7.75049086E-01  7.75049086E-01  7.75049086E-01
%FLAG ATOMIC_NUMBER                                                             
%FORMAT(10I8)                                                                   
       6       6       6       6       6       6       6       6       6       6
       7       8       1       1       1       1       1       1       1       1
       1       1       1       1       1
%FLAG MASS                                                                      
%FORMAT(5E16.8)                                                                 
  1.20100000E+01  1.20100000E+01  1.20100000E+01  1.20100000E+01  1.20100000E+01
  1.20100000E+01  1.20100000E+01  1.20100000E+01  1.20100000E+01  1.20100000E+01
  1.40100000E+01  1.60000000E+01  1.00800000E+00  1.00800000E+00  1.00800000E+00
  1.00800000E+00  1.00800000E+00  1.00800000E+00  1.00800000E+00  1.00800000E+00
  1.00800000E+00  1.00800000E+00  1.00800000E+00  1.00800000E+00  1.00800000E+00
%FLAG ATOM_TYPE_INDEX                                                           
%FORMAT(10I8)                                                                   
       1       1       1       1       1       1       1       2       2       2
       3       4       5       5       5       5       6       6       6       7
       7       7       7       7       7
%FLAG NUMBER_EXCLUDED_ATOMS                                                     
%FORMAT(10I8)                                                                   
      12      11      11      10      10       8      12       5       9       8
       7       1       1       1       1       1       2       1       1       2
       1       1       2       1       1
%FLAG NONBONDED_PARM_INDEX                                                      
%FORMAT(10I8)                                                                   
       1       2       4       7      11      16      22       2       3       5
       8      12      17      23       4       5       6       9      13      18
      24       7       8       9      10      14      19      25      11      12
      13      14      15      20      26      16      17      18      19      20
      21      27      22      23      24      25      26      27      28
%FLAG RESIDUE_LABEL                                                             
%FORMAT(20a4)                                                                   
MOL 
%FLAG RESIDUE_POINTER                                                           
%FORMAT(10I8)                                                                   
       1
%FLAG BOND_FORCE_CONSTANT                                                       
%FORMAT(5E16.8)                                                                 
  3.54250000E+02  3.60690000E+02  2.62840000E+02  2.43910000E+02  3.17460000E+02
  5.90600000E+02  3.45250000E+02  2.54460000E+02  3.44220000E+02
%FLAG BOND_EQUIL_VALUE                                                          
%FORMAT(5E16.8)                                                                 
  1.39860000E+00  1.08600000E+00  1.49070000E+00  1.51470000E+00  1.39670000E+00
  1.21900000E+00  1.09620000E+00  1.46430000E+00  1.09690000E+00
%FLAG ANGLE_FORCE_CONSTANT                                                      
%FORMAT(5E16.8)                                                                 
  6.36700000E+01  4.49000000E+01  6.14400000E+01  6.07400000E+01  6.65000000E+01
  7.79600000E+01  4.36100000E+01  7.72400000E+01  7.62100000E+01  8.66800000E+01
  4.80900000E+01  3.58000000E+01  3.56400000E+01
%FLAG ANGLE_EQUIL_VALUE                                                         
%FORMAT(5E16.8)                                                                 
  2.09474507E+00  2.09230160E+00  2.10015559E+00  2.10888224E+00  2.02248840E+00
  2.13977458E+00  1.93085858E+00  2.07397564E+00  2.03767278E+00  2.13925098E+00
  1.89822091E+00  1.88024401E+00  1.89455572E+00
%FLAG DIHEDRAL_FORCE_CONSTANT                                                   
%FORMAT(5E16.8)                                                                 
  3.62500000E+00  2.12250000E+00  5.80000000E-01  0.00000000E+00  4.82000000E+00
  2.18000000E+00  4.10000000E-01  0.00000000E+00  2.50000000E+00  0.00000000E+00
  1.10000000E+00  1.05000000E+01
%FLAG DIHEDRAL_PERIODICITY                                                      
%FORMAT(5E16.8)                                                                 
  2.00000000E+00  2.00000000E+00  2.00000000E+00  1.00000000E+00  1.00000000E+00
  2.00000000E+00  3.00000000E+00  2.00000000E+00  2.00000000E+00  2.00000000E+00
  2.00000000E+00  2.00000000E+00
%FLAG DIHEDRAL_PHASE                                                            
%FORMAT(5E16.8)                                                                 
  3.14159400E+00  3.14159400E+00  3.14159400E+00  0.00000000E+00  0.00000000E+00
  3.14159400E+00  0.00000000E+00  3.14159400E+00  3.14159400E+00  0.00000000E+00
  3.14159400E+00  3.14159400E+00
%FLAG SCEE_SCALE_FACTOR                                                         
%FORMAT(5E16.8)                                                                 
  1.20000000E+00  1.20000000E+00  1.20000000E+00  1.20000000E+00  1.20000000E+00
  1.20000000E+00  1.20000000E+00  1.20000000E+00  1.20000000E+00  1.20000000E+00
  0.00000000E+00  0.00000000E+00
%FLAG SCNB_SCALE_FACTOR                                                         
%FORMAT(5E16.8)                                                                 
  2.00000000E+00  2.00000000E+00  2.00000000E+00  2.00000000E+00  2.00000000E+00
  2.00000000E+00  2.00000000E+00  2.00000000E+00  2.00000000E+00  2.00000000E+00
  0.00000000E+00  0.00000000E+00
%FLAG SOLTY                                                                     
%FORMAT(5E16.8)                                                                 
  0.00000000E+00  0.00000000E+00  0.00000000E+00  0.00000000E+00  0.00000000E+00
  0.00000000E+00  0.00000000E+00  0.00000000E+00
%FLAG LENNARD_JONES_ACOEF                                                       
%FORMAT(5E16.8)                                                                 
  6.96551276E+05  8.43969952E+05  1.02073671E+06  7.01106848E+05  8.52084164E+05
  7.02078680E+05  5.17507491E+05  6.30925504E+05  5.15491878E+05  3.76435470E+05
  7.52549148E+04  9.27554496E+04  7.35931098E+04  5.27277400E+04  6.90855956E+03
  8.12662403E+04  1.00235148E+05  7.93773615E+04  5.68021765E+04  7.41026906E+03
  7.94617769E+03  5.63013422E+04  6.97998263E+04  5.45183252E+04  3.86646725E+04
  4.88692384E+03  5.22955465E+03  3.39005767E+03
%FLAG LENNARD_JONES_BCOEF                                                       
%FORMAT(5E16.8)                                                                 
  5.24668528E+02  5.90251928E+02  6.63431737E+02  5.97113873E+02  6.72777963E+02
  6.77820248E+02  4.98871431E+02  5.62969425E+02  5.64804067E+02  4.69350655E+02
  1.09570372E+02  1.24325688E+02  1.22913863E+02  1.01173582E+02  2.10929191E+01
  1.21392023E+02  1.37787728E+02  1.36094315E+02  1.11953944E+02  2.32899892E+01
  2.57122925E+01  1.01040256E+02  1.14981426E+02  1.12788003E+02  9.23664132E+01
  1.89134207E+01  2.08590256E+01  1.67944276E+01
%FLAG BONDS_INC_HYDROGEN                                                        
%FORMAT(10I8)                                                                   
       0      36       2       3      39       2       6      42       2       9
      45       2      21      48       7      21      51       7      21      54
       7      24      57       9      24      60       9      24      63       9
      27      66       9      27      69       9      27      72       9
%FLAG BONDS_WITHOUT_HYDROGEN                                                    
%FORMAT(10I8)                                                                   
       0       6       1       0      12       1       3       9       1       3
      12       1       6      15       1       9      15       1      12      18
       3      15      21       4      18      30       5      18      33       6
      24      30       8      27      30       8
%FLAG ANGLES_INC_HYDROGEN                                                       
%FORMAT(10I8)                                                                   
       0       6      42       2       3       9      45       2       6       0
      36       2       9       3      39       2      12       0      36       2
      12       3      39       2      15       6      42       2      15       9
      45       2      15      21      48       7      15      21      51       7
      15      21      54       7      30      24      57      11      30      24
      60      11      30      24      63      11      30      27      66      11
      30      27      69      11      30      27      72      11      48      21
      51      12      48      21      54      12      51      21      54      12
      57      24      60      13      57      24      63      13      60      24
      63      13      66      27      69      13      66      27      72      13
      69      27      72      13
%FLAG ANGLES_WITHOUT_HYDROGEN                                                   
%FORMAT(10I8)                                                                   
       0       6      15       1       0      12       3       1       0      12
      18       3       3       9      15       1       3      12      18       3
       6       0      12       1       6      15       9       1       6      15
      21       4       9       3      12       1       9      15      21       4
      12      18      30       5      12      18      33       6      18      30
      24       8      18      30      27       8      24      30      27       9
      30      18      33      10
%FLAG DIHEDRALS_INC_HYDROGEN                                                    
%FORMAT(10I8)                                                                   
       0      12       3      39       1      36       0      12       3       1
       6      15       9      45       1       6      15      21      48       4
       6      15      21      51       4       6      15      21      54       4
       9      15       6      42       1       9      15      21      48       4
       9      15      21      51       4       9      15      21      54       4
      12       0       6      42       1      12       3       9      45       1
      36       0       6      15       1      15       9       3      39       1
      36       0      12      18       1      18      12       3      39       1
      18      30      24      57       8      18      30      24      60       8
      18      30      24      63       8      18      30      27      66       8
      18      30      27      69       8      18      30      27      72       8
      21      15       6      42       1      21      15       9      45       1
      24      30      27      66      10      24      30      27      69      10
      24      30      27      72      10      27      30      24      57      10
      27      30      24      60      10      27      30      24      63      10
      36       0       6      42       1      39       3       9      45       1
      36       0     -12      -6      11       9      12      -3     -39      11
       0      15      -6     -42      11       3      15      -9     -45      11
%FLAG DIHEDRALS_WITHOUT_HYDROGEN                                                
%FORMAT(10I8)                                                                   
       0       6      15       9       1       0       6      15      21       1
       0      12      -3       9       1       0      12      18      30       2
       0      12      18      33       3       3       9      15       6       1
       3       9      15      21       1       6       0     -12       3       1
       3      12      18      30       2       3      12      18      33       3
       6       0      12      18       1       9       3      12      18       1
      12       0       6      15       1      12       3      -9      15       1
      12      18      30      24       5      12      18     -30      24       6
      12      18     -30      24       7      12      18      30      27       5
      12      18     -30      27       6      12      18     -30      27       7
      24      30      18      33       9      27      30      18      33       9
      18       0     -12      -3      11       6       9     -15     -21      11
      12      30     -18     -33      12      18      24     -30     -27      11
%FLAG EXCLUDED_ATOMS_LIST                                                       
%FORMAT(10I8)                                                                   
       2       3       4       5       6       7       8      11      12      13
      14      15       3       4       5       6       7       8      11      12
      13      14      16       4       5       6       7       8      13      15
      16      17      18      19       5       6       7       8      14      15
      16      17      18      19       6       7       9      10      11      12
      13      14      15      16       8      13      14      15      16      17
      18      19       9      10      11      12      13      14      20      21
      22      23      24      25      15      16      17      18      19      10
      11      12      20      21      22      23      24      25      11      12
      20      21      22      23      24      25      12      20      21      22
      23      24      25       0      15      16       0       0      18      19
      19       0      21      22      22       0      24      25      25       0
%FLAG HBOND_ACOEF                                                               
%FORMAT(5E16.8)                                                                 

%FLAG HBOND_BCOEF                                                               
%FORMAT(5E16.8)                                                                 

%FLAG HBCUT                                                                     
%FORMAT(5E16.8)                                                                 

%FLAG AMBER_ATOM_TYPE                                                           
%FORMAT(20a4)                                                                   
ca  ca  ca  ca  ca  ca  c   c3  c3  c3  n   o   ha  ha  ha  ha  hc  hc  hc  h1  
h1  h1  h1  h1  h1  
%FLAG TREE_CHAIN_CLASSIFICATION                                                 
%FORMAT(20a4)                                                                   
BLA BLA BLA BLA BLA BLA BLA BLA BLA BLA BLA BLA BLA BLA BLA BLA BLA BLA BLA BLA 
BLA BLA BLA BLA BLA 
%FLAG JOIN_ARRAY                                                                
%FORMAT(10I8)                                                                   
       0       0       0       0       0       0       0       0       0       0
       0       0       0       0       0       0       0       0       0       0
       0       0       0       0       0
%FLAG IROTAT                                                                    
%FORMAT(10I8)                                                                   
       0       0       0       0       0       0       0       0       0       0
       0       0       0       0       0       0       0       0       0       0
       0       0       0       0       0
%FLAG RADIUS_SET                                                                
%FORMAT(1a80)                                                                   
modified Bondi radii (mbondi)                                                   
%FLAG RADII                                                                     
%FORMAT(5E16.8)                                                                 
  1.70000000E+00  1.70000000E+00  1.70000000E+00  1.70000000E+00  1.70000000E+00
  1.70000000E+00  1.70000000E+00  1.70000000E+00  1.70000000E+00  1.70000000E+00
  1.55000000E+00  1.50000000E+00  1.30000000E+00  1.30000000E+00  1.30000000E+00
  1.30000000E+00  1.30000000E+00  1.30000000E+00  1.30000000E+00  1.30000000E+00
  1.30000000E+00  1.30000000E+00  1.30000000E+00  1.30000000E+00  1.30000000E+00
%FLAG SCREEN                                                                    
%FORMAT(5E16.8)                                                                 
  7.20000000E-01  7.20000000E-01  7.20000000E-01  7.20000000E-01  7.20000000E-01
  7.20000000E-01  7.20000000E-01  7.20000000E-01  7.20000000E-01  7.20000000E-01
  7.90000000E-01  8.50000000E-01  8.50000000E-01  8.50000000E-01  8.50000000E-01
  8.50000000E-01  8.50000000E-01  8.50000000E-01  8.50000000E-01  8.50000000E-01
  8.50000000E-01  8.50000000E-01  8.50000000E-01  8.50000000E-01  8.50000000E-01
%FLAG IPOL                                                                      
%FORMAT(1I8)                                                                    
       0
