; mobley_2659552_GMX_OPLS.top created by acpype (v: 2023.10.27) on Wed May 20 23:42:01 2026

; Include forcefield parameters
#include "ffoplsaa.itp"

; Include mobley_2659552_GMX.itp topology
#include "mobley_2659552_GMX.itp"

; Ligand position restraints
#ifdef POSRES_LIG
#include "posre_mobley_2659552.itp"
#endif

[ system ]
 mobley_2659552

[ molecules ]
; Compound        nmols
 mobley_2659552   1     
