; mobley_3980099_GMX_OPLS.top created by acpype (v: 2023.10.27) on Wed May 20 23:44:47 2026

; Include forcefield parameters
#include "ffoplsaa.itp"

; Include mobley_3980099_GMX.itp topology
#include "mobley_3980099_GMX.itp"

; Ligand position restraints
#ifdef POSRES_LIG
#include "posre_mobley_3980099.itp"
#endif

[ system ]
 mobley_3980099

[ molecules ]
; Compound        nmols
 mobley_3980099   1     
