mobley_3980099_GMX.gro created by acpype (v: 2023.10.27) on Wed May 20 23:44:47 2026
 12
    1  MOL   C1    1   0.189  -0.104  -0.011
    1  MOL   C2    2   0.082  -0.044   0.056
    1  MOL   C3    3   0.294  -0.160   0.061
    1  MOL   C4    4   0.080  -0.041   0.196
    1  MOL   C5    5   0.292  -0.157   0.201
    1  MOL   C6    6   0.185  -0.098   0.268
    1  MOL  CL1    7  -0.056   0.035   0.272
    1  MOL  CL2    8   0.425  -0.230   0.284
    1  MOL  CL3    9   0.183  -0.094   0.442
    1  MOL   H1   10   0.190  -0.106  -0.120
    1  MOL   H2   11   0.001  -0.001  -0.002
    1  MOL   H3   12   0.376  -0.206   0.007
    9.61800     5.29200    11.22600
