123_trichlorobenzene
    12
   1.8850000  -1.0380000  -0.1090000   0.8180000  -0.4410000   0.5630000
   2.9350000  -1.6040000   0.6140000   0.8010000  -0.4100000   1.9570000
   2.9180000  -1.5730000   2.0080000   1.8510000  -0.9770000   2.6800000
  -0.5560000   0.3470000   2.7180000   4.2530000  -2.2990000   2.8370000
   1.8280000  -0.9420000   4.4180000   1.8980000  -1.0610000  -1.1950000
   0.0080000  -0.0060000  -0.0170000   3.7580000  -2.0630000   0.0730000
