; mobley_3980099_GMX_OPLS.itp created by acpype (v: 2023.10.27) on Wed May 20 23:44:47 2026

; For OPLS atomtypes manual fine tuning
; AC_at:OPLS_at:OPLScode: Possible_Alternatives (see ffoplsaa.atp and ffoplsaanb.itp)
; ca:CA:opls_145: ['166', '501', '502']
; cl:x:opls_x: []
; ha:HA:opls_146: []

[ moleculetype ]
;name            nrexcl
 mobley_3980099   3

[ atoms ]
;   nr  type  resi  res  atom  cgnr     charge      mass       ; qtot   bond_type
     1 opls_145     1   MOL    C1    1    -0.114000     12.01100 ; qtot -0.114  CA  
     2 opls_145     1   MOL    C2    2    -0.118000     12.01100 ; qtot -0.232  CA  
     3 opls_145     1   MOL    C3    3    -0.118000     12.01100 ; qtot -0.350  CA  
     4 opls_145     1   MOL    C4    4     0.023400     12.01100 ; qtot -0.327  CA  
     5 opls_145     1   MOL    C5    5     0.023400     12.01100 ; qtot -0.303  CA  
     6 opls_145     1   MOL    C6    6     0.016400     12.01100 ; qtot -0.287  CA  
     7 opls_x     1   MOL   CL1    7    -0.062400      0.00000 ; qtot -0.349  x   
     8 opls_x     1   MOL   CL2    8    -0.062400      0.00000 ; qtot -0.412  x   
     9 opls_x     1   MOL   CL3    9    -0.044400      0.00000 ; qtot -0.456  x   
    10 opls_146     1   MOL    H1   10     0.146000      1.00800 ; qtot -0.310  HA  
    11 opls_146     1   MOL    H2   11     0.155000      1.00800 ; qtot -0.155  HA  
    12 opls_146     1   MOL    H3   12     0.155000      1.00800 ; qtot -0.000  HA  

[ bonds ]
;   ai     aj funct   r             k
     1      2   1 ;    1.3986e-01    2.9644e+05 ;     C1 - C2         CA - CA    
     1      3   1 ;    1.3986e-01    2.9644e+05 ;     C1 - C3         CA - CA    
     1     10   1 ;    1.0860e-01    3.0183e+05 ;     C1 - H1         CA - HA    
     2      4   1 ;    1.3986e-01    2.9644e+05 ;     C2 - C4         CA - CA    
     2     11   1 ;    1.0860e-01    3.0183e+05 ;     C2 - H2         CA - HA    
     3      5   1 ;    1.3986e-01    2.9644e+05 ;     C3 - C5         CA - CA    
     3     12   1 ;    1.0860e-01    3.0183e+05 ;     C3 - H3         CA - HA    
     4      6   1 ;    1.3986e-01    2.9644e+05 ;     C4 - C6         CA - CA    
     4      7   1 ;    1.7572e-01    1.5730e+05 ;     C4 - CL1        CA - x     
     5      6   1 ;    1.3986e-01    2.9644e+05 ;     C5 - C6         CA - CA    
     5      8   1 ;    1.7572e-01    1.5730e+05 ;     C5 - CL2        CA - x     
     6      9   1 ;    1.7572e-01    1.5730e+05 ;     C6 - CL3        CA - x     

[ pairs ]
;   ai     aj    funct
     1      6      1 ;     C1 - C6    
     1      7      1 ;     C1 - CL1   
     1      8      1 ;     C1 - CL2   
     2      5      1 ;     C2 - C5    
     2      9      1 ;     C2 - CL3   
     2     12      1 ;     C2 - H3    
     3      4      1 ;     C3 - C4    
     3      9      1 ;     C3 - CL3   
     3     11      1 ;     C3 - H2    
     4      8      1 ;     C4 - CL2   
     5      7      1 ;     C5 - CL1   
     6     11      1 ;     C6 - H2    
     6     12      1 ;     C6 - H3    
     7      9      1 ;    CL1 - CL3   
     7     11      1 ;    CL1 - H2    
     8      9      1 ;    CL2 - CL3   
     8     12      1 ;    CL2 - H3    
    10      4      1 ;     H1 - C4    
    10      5      1 ;     H1 - C5    
    10     11      1 ;     H1 - H2    
    10     12      1 ;     H1 - H3    

[ angles ]
;   ai     aj     ak    funct   theta         cth
     1      2      4      1 ;    1.2002e+02    5.3279e+02 ;     C1 - C2   - C4       CA -   CA - CA  
     1      2     11      1 ;    1.1988e+02    3.7572e+02 ;     C1 - C2   - H2       CA -   CA - HA  
     1      3      5      1 ;    1.2002e+02    5.3279e+02 ;     C1 - C3   - C5       CA -   CA - CA  
     1      3     12      1 ;    1.1988e+02    3.7572e+02 ;     C1 - C3   - H3       CA -   CA - HA  
     2      1      3      1 ;    1.2002e+02    5.3279e+02 ;     C2 - C1   - C3       CA -   CA - CA  
     2      1     10      1 ;    1.1988e+02    3.7572e+02 ;     C2 - C1   - H1       CA -   CA - HA  
     2      4      6      1 ;    1.2002e+02    5.3279e+02 ;     C2 - C4   - C6       CA -   CA - CA  
     2      4      7      1 ;    1.1938e+02    5.3605e+02 ;     C2 - C4   - CL1      CA -   CA - x   
     3      1     10      1 ;    1.1988e+02    3.7572e+02 ;     C3 - C1   - H1       CA -   CA - HA  
     3      5      6      1 ;    1.2002e+02    5.3279e+02 ;     C3 - C5   - C6       CA -   CA - CA  
     3      5      8      1 ;    1.1938e+02    5.3605e+02 ;     C3 - C5   - CL2      CA -   CA - x   
     4      2     11      1 ;    1.1988e+02    3.7572e+02 ;     C4 - C2   - H2       CA -   CA - HA  
     4      6      5      1 ;    1.2002e+02    5.3279e+02 ;     C4 - C6   - C5       CA -   CA - CA  
     4      6      9      1 ;    1.1938e+02    5.3605e+02 ;     C4 - C6   - CL3      CA -   CA - x   
     5      3     12      1 ;    1.1988e+02    3.7572e+02 ;     C5 - C3   - H3       CA -   CA - HA  
     5      6      9      1 ;    1.1938e+02    5.3605e+02 ;     C5 - C6   - CL3      CA -   CA - x   
     6      4      7      1 ;    1.1938e+02    5.3605e+02 ;     C6 - C4   - CL1      CA -   CA - x   
     6      5      8      1 ;    1.1938e+02    5.3605e+02 ;     C6 - C5   - CL2      CA -   CA - x   

[ dihedrals ] ; propers
; for gromacs 4.5 or higher, using funct 9
;    i      j      k      l   func   phase     kd      pn
     1      2      4      6      9 ;   180.00  15.16700   2 ;     C1-    C2-    C4-    C6
     1      2      4      7      9 ;   180.00  15.16700   2 ;     C1-    C2-    C4-   CL1
     1      3      5      6      9 ;   180.00  15.16700   2 ;     C1-    C3-    C5-    C6
     1      3      5      8      9 ;   180.00  15.16700   2 ;     C1-    C3-    C5-   CL2
     2      1      3      5      9 ;   180.00  15.16700   2 ;     C2-    C1-    C3-    C5
     2      1      3     12      9 ;   180.00  15.16700   2 ;     C2-    C1-    C3-    H3
     2      4      6      5      9 ;   180.00  15.16700   2 ;     C2-    C4-    C6-    C5
     2      4      6      9      9 ;   180.00  15.16700   2 ;     C2-    C4-    C6-   CL3
     3      1      2      4      9 ;   180.00  15.16700   2 ;     C3-    C1-    C2-    C4
     3      1      2     11      9 ;   180.00  15.16700   2 ;     C3-    C1-    C2-    H2
     3      5      6      4      9 ;   180.00  15.16700   2 ;     C3-    C5-    C6-    C4
     3      5      6      9      9 ;   180.00  15.16700   2 ;     C3-    C5-    C6-   CL3
     4      6      5      8      9 ;   180.00  15.16700   2 ;     C4-    C6-    C5-   CL2
     5      6      4      7      9 ;   180.00  15.16700   2 ;     C5-    C6-    C4-   CL1
     6      4      2     11      9 ;   180.00  15.16700   2 ;     C6-    C4-    C2-    H2
     6      5      3     12      9 ;   180.00  15.16700   2 ;     C6-    C5-    C3-    H3
     7      4      2     11      9 ;   180.00  15.16700   2 ;    CL1-    C4-    C2-    H2
     7      4      6      9      9 ;   180.00  15.16700   2 ;    CL1-    C4-    C6-   CL3
     8      5      3     12      9 ;   180.00  15.16700   2 ;    CL2-    C5-    C3-    H3
     8      5      6      9      9 ;   180.00  15.16700   2 ;    CL2-    C5-    C6-   CL3
    10      1      2      4      9 ;   180.00  15.16700   2 ;     H1-    C1-    C2-    C4
    10      1      2     11      9 ;   180.00  15.16700   2 ;     H1-    C1-    C2-    H2
    10      1      3      5      9 ;   180.00  15.16700   2 ;     H1-    C1-    C3-    C5
    10      1      3     12      9 ;   180.00  15.16700   2 ;     H1-    C1-    C3-    H3

[ dihedrals ] ; impropers
; treated as propers in GROMACS to use correct AMBER analytical function
;    i      j      k      l   func   phase     kd      pn
     1      4      2     11      4 ;   180.00   4.60240   2 ;     C1-    C4-    C2-    H2
     1      5      3     12      4 ;   180.00   4.60240   2 ;     C1-    C5-    C3-    H3
     2      6      4      7      4 ;   180.00   4.60240   2 ;     C2-    C6-    C4-   CL1
     3      6      5      8      4 ;   180.00   4.60240   2 ;     C3-    C6-    C5-   CL2
     4      5      6      9      4 ;   180.00   4.60240   2 ;     C4-    C5-    C6-   CL3
    10      1      3      2      4 ;   180.00   4.60240   2 ;     H1-    C1-    C3-    C2
