; mobley_4252724_GMX_OPLS.top created by acpype (v: 2023.10.27) on Thu May 21 00:02:02 2026

; Include forcefield parameters
#include "ffoplsaa.itp"

; Include mobley_4252724_GMX.itp topology
#include "mobley_4252724_GMX.itp"

; Ligand position restraints
#ifdef POSRES_LIG
#include "posre_mobley_4252724.itp"
#endif

[ system ]
 mobley_4252724

[ molecules ]
; Compound        nmols
 mobley_4252724   1     
