isobutylbenzene
    24
  -2.3830000   3.1740000  -2.0960000  -1.0120000   2.9510000  -1.9810000
  -3.2040000   3.0680000  -0.9730000  -0.4600000   2.6210000  -0.7430000
  -2.6520000   2.7390000   0.2660000  -1.2870000   2.5200000   0.3650000
  -2.0270000   0.0020000   1.8760000   0.3170000  -0.0300000   1.0010000
  -0.6900000   2.1630000   1.7040000  -0.6430000   0.6470000   1.9820000
  -2.8130000   3.4310000  -3.0600000  -0.3730000   3.0330000  -2.8560000
  -4.2720000   3.2430000  -1.0620000   0.6100000   2.4490000  -0.6630000
  -3.2990000   2.6590000   1.1350000  -2.4720000   0.1740000   0.8900000
  -2.7110000   0.3990000   2.6330000  -1.9630000  -1.0810000   2.0310000
   0.3860000  -1.1040000   1.2020000  -0.0150000   0.1010000  -0.0350000
   1.3250000   0.3910000   1.0900000   0.3180000   2.5890000   1.7890000
  -1.2870000   2.6640000   2.4780000  -0.2630000   0.4720000   2.9960000
