mobley_4252724_GMX.gro created by acpype (v: 2023.10.27) on Thu May 21 00:02:02 2026
 24
    1  MOL   C1    1  -0.238   0.317  -0.210
    1  MOL   C2    2  -0.101   0.295  -0.198
    1  MOL   C3    3  -0.320   0.307  -0.097
    1  MOL   C4    4  -0.046   0.262  -0.074
    1  MOL   C5    5  -0.265   0.274   0.027
    1  MOL   C6    6  -0.129   0.252   0.036
    1  MOL   C7    7  -0.203   0.000   0.188
    1  MOL   C8    8   0.032  -0.003   0.100
    1  MOL   C9    9  -0.069   0.216   0.170
    1  MOL  C10   10  -0.064   0.065   0.198
    1  MOL   H1   11  -0.281   0.343  -0.306
    1  MOL   H2   12  -0.037   0.303  -0.286
    1  MOL   H3   13  -0.427   0.324  -0.106
    1  MOL   H4   14   0.061   0.245  -0.066
    1  MOL   H5   15  -0.330   0.266   0.114
    1  MOL   H6   16  -0.247   0.017   0.089
    1  MOL   H7   17  -0.271   0.040   0.263
    1  MOL   H8   18  -0.196  -0.108   0.203
    1  MOL   H9   19   0.039  -0.110   0.120
    1  MOL  H10   20  -0.002   0.010  -0.004
    1  MOL  H11   21   0.133   0.039   0.109
    1  MOL  H12   22   0.032   0.259   0.179
    1  MOL  H13   23  -0.129   0.266   0.248
    1  MOL  H14   24  -0.026   0.047   0.300
   11.19400     9.07000    12.11200
